LAMMPS (9 Nov 2018)

# generate the box and atom positions using a diamond lattice
variable a equal 3.615

boundary        p p p
units           metal
lattice         fcc $a
lattice         fcc 3.615
Lattice spacing in x,y,z = 3.615 3.615 3.615

region          box block 0 10 0 10 0 10
create_box      1 box
Created orthogonal box = (0 0 0) to (36.15 36.15 36.15)
  1 by 1 by 1 MPI processor grid
create_atoms    1 box
Created 4000 atoms
  Time spent = 0.00163198 secs

#mass 1 1.0

pair_style      eam/alloy
pair_coeff * * Cu.lammps.eam Cu

include ../in.affine_modulus
# LAMMPS mods to calculate affine modulus in xy direction
# Author: Bin Xu (xubinrun@gmail.com)

# control variables
variable max_strain 	equal 0.01
variable strain_step 	equal 1e-5
variable dxy 		equal v_strain_step*ly
variable loop_num 	equal v_max_strain/v_strain_step

# watch variables
#variable bar2GPa      	equal 1e-5  	# assuming units metal
variable stress  	equal -pxy      #*${bar2GPa}
variable strain  	equal  xy/ly
variable pea 		equal pe/atoms

# mail loop
run 0
WARNING: No fixes defined, atoms won't move (../verlet.cpp:55)
Neighbor list info ...
  update every 1 steps, delay 10 steps, check yes
  max neighbors/atom: 2000, page size: 100000
  master list distance cutoff = 8.5
  ghost atom cutoff = 8.5
  binsize = 4.25, bins = 9 9 9
  1 neighbor lists, perpetual/occasional/extra = 1 0 0
  (1) pair eam/alloy, perpetual
      attributes: half, newton on
      pair build: half/bin/atomonly/newton
      stencil: half/bin/3d/newton
      bin: standard
Per MPI rank memory allocation (min/avg/max) = 5.221 | 5.221 | 5.221 Mbytes
Step Temp E_pair E_mol TotEng Press 
       0            0   -14160.131            0   -14160.131   -22286.583 
Loop time of 9.53674e-07 on 1 procs for 0 steps with 4000 atoms

314.6% CPU use with 1 MPI tasks x no OpenMP threads

MPI task timing breakdown:
Section |  min time  |  avg time  |  max time  |%varavg| %total
---------------------------------------------------------------
Pair    | 0          | 0          | 0          |   0.0 |  0.00
Neigh   | 0          | 0          | 0          |   0.0 |  0.00
Comm    | 0          | 0          | 0          |   0.0 |  0.00
Output  | 0          | 0          | 0          |   0.0 |  0.00
Modify  | 0          | 0          | 0          |   0.0 |  0.00
Other   |            | 9.537e-07  |            |       |100.00

Nlocal:    4000 ave 4000 max 4000 min
Histogram: 1 0 0 0 0 0 0 0 0 0
Nghost:    8195 ave 8195 max 8195 min
Histogram: 1 0 0 0 0 0 0 0 0 0
Neighs:    448000 ave 448000 max 448000 min
Histogram: 1 0 0 0 0 0 0 0 0 0

Total # of neighbors = 448000
Ave neighs/atom = 112
Neighbor list builds = 0
Dangerous builds = 0
write_dump all atom init.lammpstrj

change_box all triclinic
  triclinic box = (0 0 0) to (36.15 36.15 36.15) with tilt (0 0 0)
variable loop_index loop ${loop_num}
variable loop_index loop 1000

label AFFINE_LOOP
change_box all xy delta ${dxy} remap units box
change_box all xy delta 0.0003615 remap units box
  triclinic box = (0 0 0) to (36.15 36.15 36.15) with tilt (0.0003615 0 0)
thermo_style custom step pe pxx pyy pzz pxy pxz pyz v_strain v_stress v_pea
run 0
WARNING: No fixes defined, atoms won't move (../verlet.cpp:55)
Neighbor list info ...
  update every 1 steps, delay 10 steps, check yes
  max neighbors/atom: 2000, page size: 100000
  master list distance cutoff = 8.5
  ghost atom cutoff = 8.5
  binsize = 4.25, bins = 9 9 9
  1 neighbor lists, perpetual/occasional/extra = 1 0 0
  (1) pair eam/alloy, perpetual
      attributes: half, newton on
      pair build: half/bin/newton/tri
      stencil: half/bin/3d/newton/tri
      bin: standard
Per MPI rank memory allocation (min/avg/max) = 5.221 | 5.221 | 5.221 Mbytes
Step PotEng Pxx Pyy Pzz Pxy Pxz Pyz v_strain v_stress v_pea 
       0   -14160.131   -22286.583   -22286.583   -22286.583   -7.5972116 9.4685031e-11 2.4527398e-10        1e-05    7.5972116   -3.5400328 
Loop time of 9.53674e-07 on 1 procs for 0 steps with 4000 atoms

209.7% CPU use with 1 MPI tasks x no OpenMP threads

MPI task timing breakdown:
Section |  min time  |  avg time  |  max time  |%varavg| %total
---------------------------------------------------------------
Pair    | 0          | 0          | 0          |   0.0 |  0.00
Neigh   | 0          | 0          | 0          |   0.0 |  0.00
Comm    | 0          | 0          | 0          |   0.0 |  0.00
Output  | 0          | 0          | 0          |   0.0 |  0.00
Modify  | 0          | 0          | 0          |   0.0 |  0.00
Other   |            | 9.537e-07  |            |       |100.00

Nlocal:    4000 ave 4000 max 4000 min
Histogram: 1 0 0 0 0 0 0 0 0 0
Nghost:    8195 ave 8195 max 8195 min
Histogram: 1 0 0 0 0 0 0 0 0 0
Neighs:    448000 ave 448000 max 448000 min
Histogram: 1 0 0 0 0 0 0 0 0 0

Total # of neighbors = 448000
Ave neighs/atom = 112
Neighbor list builds = 0
Dangerous builds = 0
print  "! ${loop_index} ${strain} ${stress} ${pea}"
! 1 1e-05 7.59721158948945 -3.54003283211544
next loop_index
jump SELF AFFINE_LOOP
change_box all xy delta ${dxy} remap units box
change_box all xy delta 0.0003615 remap units box
  triclinic box = (0 0 0) to (36.15 36.15 36.15) with tilt (0.000723 0 0)
thermo_style custom step pe pxx pyy pzz pxy pxz pyz v_strain v_stress v_pea
run 0
WARNING: No fixes defined, atoms won't move (../verlet.cpp:55)
Per MPI rank memory allocation (min/avg/max) = 5.221 | 5.221 | 5.221 Mbytes
Step PotEng Pxx Pyy Pzz Pxy Pxz Pyz v_strain v_stress v_pea 
       0   -14160.131   -22286.583   -22286.582   -22286.584   -15.194423 -1.5223557e-10 -5.0109515e-11        2e-05    15.194423   -3.5400328 
Loop time of 9.53674e-07 on 1 procs for 0 steps with 4000 atoms

314.6% CPU use with 1 MPI tasks x no OpenMP threads

MPI task timing breakdown:
Section |  min time  |  avg time  |  max time  |%varavg| %total
---------------------------------------------------------------
Pair    | 0          | 0          | 0          |   0.0 |  0.00
Neigh   | 0          | 0          | 0          |   0.0 |  0.00
Comm    | 0          | 0          | 0          |   0.0 |  0.00
Output  | 0          | 0          | 0          |   0.0 |  0.00
Modify  | 0          | 0          | 0          |   0.0 |  0.00
Other   |            | 9.537e-07  |            |       |100.00

Nlocal:    4000 ave 4000 max 4000 min
Histogram: 1 0 0 0 0 0 0 0 0 0
Nghost:    8195 ave 8195 max 8195 min
Histogram: 1 0 0 0 0 0 0 0 0 0
Neighs:    448000 ave 448000 max 448000 min
Histogram: 1 0 0 0 0 0 0 0 0 0

Total # of neighbors = 448000
Ave neighs/atom = 112
Neighbor list builds = 0
Dangerous builds = 0
print  "! ${loop_index} ${strain} ${stress} ${pea}"
! 2 2e-05 15.1944231750077 -3.5400328312702
next loop_index
jump SELF AFFINE_LOOP
change_box all xy delta ${dxy} remap units box
change_box all xy delta 0.0003615 remap units box
  triclinic box = (0 0 0) to (36.15 36.15 36.15) with tilt (0.0010845 0 0)
thermo_style custom step pe pxx pyy pzz pxy pxz pyz v_strain v_stress v_pea
run 0
WARNING: No fixes defined, atoms won't move (../verlet.cpp:55)
Per MPI rank memory allocation (min/avg/max) = 5.221 | 5.221 | 5.221 Mbytes
Step PotEng Pxx Pyy Pzz Pxy Pxz Pyz v_strain v_stress v_pea 
       0   -14160.131   -22286.582   -22286.581   -22286.584   -22.791635 2.9249764e-11 -1.0904323e-10        3e-05    22.791635   -3.5400328 
Loop time of 1.90735e-06 on 1 procs for 0 steps with 4000 atoms

209.7% CPU use with 1 MPI tasks x no OpenMP threads

MPI task timing breakdown:
Section |  min time  |  avg time  |  max time  |%varavg| %total
---------------------------------------------------------------
Pair    | 0          | 0          | 0          |   0.0 |  0.00
Neigh   | 0          | 0          | 0          |   0.0 |  0.00
Comm    | 0          | 0          | 0          |   0.0 |  0.00
Output  | 0          | 0          | 0          |   0.0 |  0.00
Modify  | 0          | 0          | 0          |   0.0 |  0.00
Other   |            | 1.907e-06  |            |       |100.00

Nlocal:    4000 ave 4000 max 4000 min
Histogram: 1 0 0 0 0 0 0 0 0 0
Nghost:    8195 ave 8195 max 8195 min
Histogram: 1 0 0 0 0 0 0 0 0 0
Neighs:    448000 ave 448000 max 448000 min
Histogram: 1 0 0 0 0 0 0 0 0 0

Total # of neighbors = 448000
Ave neighs/atom = 112
Neighbor list builds = 0
Dangerous builds = 0
print  "! ${loop_index} ${strain} ${stress} ${pea}"
! 3 3e-05 22.7916347524515 -3.54003282986336
next loop_index
jump SELF AFFINE_LOOP
change_box all xy delta ${dxy} remap units box
change_box all xy delta 0.0003615 remap units box
  triclinic box = (0 0 0) to (36.15 36.15 36.15) with tilt (0.001446 0 0)
thermo_style custom step pe pxx pyy pzz pxy pxz pyz v_strain v_stress v_pea
run 0
WARNING: No fixes defined, atoms won't move (../verlet.cpp:55)
Per MPI rank memory allocation (min/avg/max) = 5.221 | 5.221 | 5.221 Mbytes
Step PotEng Pxx Pyy Pzz Pxy Pxz Pyz v_strain v_stress v_pea 
       0   -14160.131   -22286.581   -22286.579   -22286.584   -30.388846 -4.3529507e-11 -3.0478516e-10        4e-05    30.388846   -3.5400328 
Loop time of 1.90735e-06 on 1 procs for 0 steps with 4000 atoms

157.3% CPU use with 1 MPI tasks x no OpenMP threads

MPI task timing breakdown:
Section |  min time  |  avg time  |  max time  |%varavg| %total
---------------------------------------------------------------
Pair    | 0          | 0          | 0          |   0.0 |  0.00
Neigh   | 0          | 0          | 0          |   0.0 |  0.00
Comm    | 0          | 0          | 0          |   0.0 |  0.00
Output  | 0          | 0          | 0          |   0.0 |  0.00
Modify  | 0          | 0          | 0          |   0.0 |  0.00
Other   |            | 1.907e-06  |            |       |100.00

Nlocal:    4000 ave 4000 max 4000 min
Histogram: 1 0 0 0 0 0 0 0 0 0
Nghost:    8195 ave 8195 max 8195 min
Histogram: 1 0 0 0 0 0 0 0 0 0
Neighs:    448000 ave 448000 max 448000 min
Histogram: 1 0 0 0 0 0 0 0 0 0

Total # of neighbors = 448000
Ave neighs/atom = 112
Neighbor list builds = 0
Dangerous builds = 0
print  "! ${loop_index} ${strain} ${stress} ${pea}"
! 4 4e-05 30.3888463179094 -3.54003282790605
next loop_index
jump SELF AFFINE_LOOP
change_box all xy delta ${dxy} remap units box
change_box all xy delta 0.0003615 remap units box
  triclinic box = (0 0 0) to (36.15 36.15 36.15) with tilt (0.0018075 0 0)
thermo_style custom step pe pxx pyy pzz pxy pxz pyz v_strain v_stress v_pea
run 0
WARNING: No fixes defined, atoms won't move (../verlet.cpp:55)
Per MPI rank memory allocation (min/avg/max) = 5.221 | 5.221 | 5.221 Mbytes
Step PotEng Pxx Pyy Pzz Pxy Pxz Pyz v_strain v_stress v_pea 
       0   -14160.131    -22286.58   -22286.577   -22286.585   -37.986058 -5.582869e-11 -3.5100979e-10        5e-05    37.986058   -3.5400328 
Loop time of 2.14577e-06 on 1 procs for 0 steps with 4000 atoms

139.8% CPU use with 1 MPI tasks x no OpenMP threads

MPI task timing breakdown:
Section |  min time  |  avg time  |  max time  |%varavg| %total
---------------------------------------------------------------
Pair    | 0          | 0          | 0          |   0.0 |  0.00
Neigh   | 0          | 0          | 0          |   0.0 |  0.00
Comm    | 0          | 0          | 0          |   0.0 |  0.00
Output  | 0          | 0          | 0          |   0.0 |  0.00
Modify  | 0          | 0          | 0          |   0.0 |  0.00
Other   |            | 2.146e-06  |            |       |100.00

Nlocal:    4000 ave 4000 max 4000 min
Histogram: 1 0 0 0 0 0 0 0 0 0
Nghost:    8195 ave 8195 max 8195 min
Histogram: 1 0 0 0 0 0 0 0 0 0
Neighs:    448000 ave 448000 max 448000 min
Histogram: 1 0 0 0 0 0 0 0 0 0

Total # of neighbors = 448000
Ave neighs/atom = 112
Neighbor list builds = 0
Dangerous builds = 0
print  "! ${loop_index} ${strain} ${stress} ${pea}"
! 5 5e-05 37.9860578672088 -3.54003282538905
next loop_index
jump SELF AFFINE_LOOP
change_box all xy delta ${dxy} remap units box
change_box all xy delta 0.0003615 remap units box
  triclinic box = (0 0 0) to (36.15 36.15 36.15) with tilt (0.002169 0 0)
thermo_style custom step pe pxx pyy pzz pxy pxz pyz v_strain v_stress v_pea
run 0
WARNING: No fixes defined, atoms won't move (../verlet.cpp:55)
Per MPI rank memory allocation (min/avg/max) = 5.221 | 5.221 | 5.221 Mbytes
Step PotEng Pxx Pyy Pzz Pxy Pxz Pyz v_strain v_stress v_pea 
       0   -14160.131   -22286.579   -22286.574   -22286.586   -45.583269 4.7060503e-11 1.1924196e-10        6e-05    45.583269   -3.5400328 
Loop time of 1.90735e-06 on 1 procs for 0 steps with 4000 atoms

157.3% CPU use with 1 MPI tasks x no OpenMP threads

MPI task timing breakdown:
Section |  min time  |  avg time  |  max time  |%varavg| %total
---------------------------------------------------------------
Pair    | 0          | 0          | 0          |   0.0 |  0.00
Neigh   | 0          | 0          | 0          |   0.0 |  0.00
Comm    | 0          | 0          | 0          |   0.0 |  0.00
Output  | 0          | 0          | 0          |   0.0 |  0.00
Modify  | 0          | 0          | 0          |   0.0 |  0.00
Other   |            | 1.907e-06  |            |       |100.00

Nlocal:    4000 ave 4000 max 4000 min
Histogram: 1 0 0 0 0 0 0 0 0 0
Nghost:    8195 ave 8195 max 8195 min
Histogram: 1 0 0 0 0 0 0 0 0 0
Neighs:    448000 ave 448000 max 448000 min
Histogram: 1 0 0 0 0 0 0 0 0 0

Total # of neighbors = 448000
Ave neighs/atom = 112
Neighbor list builds = 0
Dangerous builds = 0
print  "! ${loop_index} ${strain} ${stress} ${pea}"
! 6 6e-05 45.5832693964672 -3.54003282230769
next loop_index
jump SELF AFFINE_LOOP
change_box all xy delta ${dxy} remap units box
change_box all xy delta 0.0003615 remap units box
  triclinic box = (0 0 0) to (36.15 36.15 36.15) with tilt (0.0025305 0 0)
thermo_style custom step pe pxx pyy pzz pxy pxz pyz v_strain v_stress v_pea
run 0
WARNING: No fixes defined, atoms won't move (../verlet.cpp:55)
Per MPI rank memory allocation (min/avg/max) = 5.221 | 5.221 | 5.221 Mbytes
Step PotEng Pxx Pyy Pzz Pxy Pxz Pyz v_strain v_stress v_pea 
       0   -14160.131   -22286.577   -22286.571   -22286.586   -53.180481 8.4143492e-11 -1.3102659e-10        7e-05    53.180481   -3.5400328 
Loop time of 1.90735e-06 on 1 procs for 0 steps with 4000 atoms

262.1% CPU use with 1 MPI tasks x no OpenMP threads

MPI task timing breakdown:
Section |  min time  |  avg time  |  max time  |%varavg| %total
---------------------------------------------------------------
Pair    | 0          | 0          | 0          |   0.0 |  0.00
Neigh   | 0          | 0          | 0          |   0.0 |  0.00
Comm    | 0          | 0          | 0          |   0.0 |  0.00
Output  | 0          | 0          | 0          |   0.0 |  0.00
Modify  | 0          | 0          | 0          |   0.0 |  0.00
Other   |            | 1.907e-06  |            |       |100.00

Nlocal:    4000 ave 4000 max 4000 min
Histogram: 1 0 0 0 0 0 0 0 0 0
Nghost:    8195 ave 8195 max 8195 min
Histogram: 1 0 0 0 0 0 0 0 0 0
Neighs:    448000 ave 448000 max 448000 min
Histogram: 1 0 0 0 0 0 0 0 0 0

Total # of neighbors = 448000
Ave neighs/atom = 112
Neighbor list builds = 0
Dangerous builds = 0
print  "! ${loop_index} ${strain} ${stress} ${pea}"
! 7 7e-05 53.1804809017062 -3.54003281866488
next loop_index
jump SELF AFFINE_LOOP
change_box all xy delta ${dxy} remap units box
change_box all xy delta 0.0003615 remap units box
  triclinic box = (0 0 0) to (36.15 36.15 36.15) with tilt (0.002892 0 0)
thermo_style custom step pe pxx pyy pzz pxy pxz pyz v_strain v_stress v_pea
run 0
WARNING: No fixes defined, atoms won't move (../verlet.cpp:55)
Per MPI rank memory allocation (min/avg/max) = 5.221 | 5.221 | 5.221 Mbytes
Step PotEng Pxx Pyy Pzz Pxy Pxz Pyz v_strain v_stress v_pea 
       0   -14160.131   -22286.576   -22286.567   -22286.587   -60.777692 4.0676847e-11 -1.6492748e-12        8e-05    60.777692   -3.5400328 
Loop time of 9.53674e-07 on 1 procs for 0 steps with 4000 atoms

314.6% CPU use with 1 MPI tasks x no OpenMP threads

MPI task timing breakdown:
Section |  min time  |  avg time  |  max time  |%varavg| %total
---------------------------------------------------------------
Pair    | 0          | 0          | 0          |   0.0 |  0.00
Neigh   | 0          | 0          | 0          |   0.0 |  0.00
Comm    | 0          | 0          | 0          |   0.0 |  0.00
Output  | 0          | 0          | 0          |   0.0 |  0.00
Modify  | 0          | 0          | 0          |   0.0 |  0.00
Other   |            | 9.537e-07  |            |       |100.00

Nlocal:    4000 ave 4000 max 4000 min
Histogram: 1 0 0 0 0 0 0 0 0 0
Nghost:    8195 ave 8195 max 8195 min
Histogram: 1 0 0 0 0 0 0 0 0 0
Neighs:    448000 ave 448000 max 448000 min
Histogram: 1 0 0 0 0 0 0 0 0 0

Total # of neighbors = 448000
Ave neighs/atom = 112
Neighbor list builds = 0
Dangerous builds = 0
print  "! ${loop_index} ${strain} ${stress} ${pea}"
! 8 8e-05 60.7776923787748 -3.54003281446775
next loop_index
jump SELF AFFINE_LOOP
change_box all xy delta ${dxy} remap units box
change_box all xy delta 0.0003615 remap units box
  triclinic box = (0 0 0) to (36.15 36.15 36.15) with tilt (0.0032535 0 0)
thermo_style custom step pe pxx pyy pzz pxy pxz pyz v_strain v_stress v_pea
run 0
WARNING: No fixes defined, atoms won't move (../verlet.cpp:55)
Per MPI rank memory allocation (min/avg/max) = 5.221 | 5.221 | 5.221 Mbytes
Step PotEng Pxx Pyy Pzz Pxy Pxz Pyz v_strain v_stress v_pea 
       0   -14160.131   -22286.573   -22286.563   -22286.588   -68.374904 -1.7535551e-12 -1.7200265e-10        9e-05    68.374904   -3.5400328 
Loop time of 9.53674e-07 on 1 procs for 0 steps with 4000 atoms

314.6% CPU use with 1 MPI tasks x no OpenMP threads

MPI task timing breakdown:
Section |  min time  |  avg time  |  max time  |%varavg| %total
---------------------------------------------------------------
Pair    | 0          | 0          | 0          |   0.0 |  0.00
Neigh   | 0          | 0          | 0          |   0.0 |  0.00
Comm    | 0          | 0          | 0          |   0.0 |  0.00
Output  | 0          | 0          | 0          |   0.0 |  0.00
Modify  | 0          | 0          | 0          |   0.0 |  0.00
Other   |            | 9.537e-07  |            |       |100.00

Nlocal:    4000 ave 4000 max 4000 min
Histogram: 1 0 0 0 0 0 0 0 0 0
Nghost:    8195 ave 8195 max 8195 min
Histogram: 1 0 0 0 0 0 0 0 0 0
Neighs:    448000 ave 448000 max 448000 min
Histogram: 1 0 0 0 0 0 0 0 0 0

Total # of neighbors = 448000
Ave neighs/atom = 112
Neighbor list builds = 0
Dangerous builds = 0
print  "! ${loop_index} ${strain} ${stress} ${pea}"
! 9 9e-05 68.3749038237596 -3.54003280971426
next loop_index
jump SELF AFFINE_LOOP
change_box all xy delta ${dxy} remap units box
change_box all xy delta 0.0003615 remap units box
  triclinic box = (0 0 0) to (36.15 36.15 36.15) with tilt (0.003615 0 0)
thermo_style custom step pe pxx pyy pzz pxy pxz pyz v_strain v_stress v_pea
run 0
WARNING: No fixes defined, atoms won't move (../verlet.cpp:55)
Per MPI rank memory allocation (min/avg/max) = 5.221 | 5.221 | 5.221 Mbytes
Step PotEng Pxx Pyy Pzz Pxy Pxz Pyz v_strain v_stress v_pea 
       0   -14160.131   -22286.571   -22286.558   -22286.589   -75.972115 -2.3701086e-11 -1.2754482e-10       0.0001    75.972115   -3.5400328 
Loop time of 9.53674e-07 on 1 procs for 0 steps with 4000 atoms

314.6% CPU use with 1 MPI tasks x no OpenMP threads

MPI task timing breakdown:
Section |  min time  |  avg time  |  max time  |%varavg| %total
---------------------------------------------------------------
Pair    | 0          | 0          | 0          |   0.0 |  0.00
Neigh   | 0          | 0          | 0          |   0.0 |  0.00
Comm    | 0          | 0          | 0          |   0.0 |  0.00
Output  | 0          | 0          | 0          |   0.0 |  0.00
Modify  | 0          | 0          | 0          |   0.0 |  0.00
Other   |            | 9.537e-07  |            |       |100.00

Nlocal:    4000 ave 4000 max 4000 min
Histogram: 1 0 0 0 0 0 0 0 0 0
Nghost:    8195 ave 8195 max 8195 min
Histogram: 1 0 0 0 0 0 0 0 0 0
Neighs:    448000 ave 448000 max 448000 min
Histogram: 1 0 0 0 0 0 0 0 0 0

Total # of neighbors = 448000
Ave neighs/atom = 112
Neighbor list builds = 0
Dangerous builds = 0
print  "! ${loop_index} ${strain} ${stress} ${pea}"
! 10 0.0001 75.9721152325986 -3.54003280438262
next loop_index
jump SELF AFFINE_LOOP
change_box all xy delta ${dxy} remap units box
change_box all xy delta 0.0003615 remap units box
  triclinic box = (0 0 0) to (36.15 36.15 36.15) with tilt (0.0039765 0 0)
thermo_style custom step pe pxx pyy pzz pxy pxz pyz v_strain v_stress v_pea
run 0
WARNING: No fixes defined, atoms won't move (../verlet.cpp:55)
Per MPI rank memory allocation (min/avg/max) = 5.221 | 5.221 | 5.221 Mbytes
Step PotEng Pxx Pyy Pzz Pxy Pxz Pyz v_strain v_stress v_pea 
       0   -14160.131   -22286.568   -22286.553    -22286.59   -83.569327 -9.4755276e-11 -1.7743861e-11      0.00011    83.569327   -3.5400328 
Loop time of 2.14577e-06 on 1 procs for 0 steps with 4000 atoms

139.8% CPU use with 1 MPI tasks x no OpenMP threads

MPI task timing breakdown:
Section |  min time  |  avg time  |  max time  |%varavg| %total
---------------------------------------------------------------
Pair    | 0          | 0          | 0          |   0.0 |  0.00
Neigh   | 0          | 0          | 0          |   0.0 |  0.00
Comm    | 0          | 0          | 0          |   0.0 |  0.00
Output  | 0          | 0          | 0          |   0.0 |  0.00
Modify  | 0          | 0          | 0          |   0.0 |  0.00
Other   |            | 2.146e-06  |            |       |100.00

Nlocal:    4000 ave 4000 max 4000 min
Histogram: 1 0 0 0 0 0 0 0 0 0
Nghost:    8195 ave 8195 max 8195 min
Histogram: 1 0 0 0 0 0 0 0 0 0
Neighs:    448000 ave 448000 max 448000 min
Histogram: 1 0 0 0 0 0 0 0 0 0

Total # of neighbors = 448000
Ave neighs/atom = 112
Neighbor list builds = 0
Dangerous builds = 0
print  "! ${loop_index} ${strain} ${stress} ${pea}"
! 11 0.00011 83.5693266012908 -3.5400327985071
next loop_index
jump SELF AFFINE_LOOP
change_box all xy delta ${dxy} remap units box
change_box all xy delta 0.0003615 remap units box
  triclinic box = (0 0 0) to (36.15 36.15 36.15) with tilt (0.004338 0 0)
thermo_style custom step pe pxx pyy pzz pxy pxz pyz v_strain v_stress v_pea
run 0
WARNING: No fixes defined, atoms won't move (../verlet.cpp:55)
Per MPI rank memory allocation (min/avg/max) = 5.221 | 5.221 | 5.221 Mbytes
Step PotEng Pxx Pyy Pzz Pxy Pxz Pyz v_strain v_stress v_pea 
       0   -14160.131   -22286.566   -22286.547   -22286.592   -91.166538 4.5711096e-11 1.2353378e-10      0.00012    91.166538   -3.5400328 
Loop time of 9.53674e-07 on 1 procs for 0 steps with 4000 atoms

314.6% CPU use with 1 MPI tasks x no OpenMP threads

MPI task timing breakdown:
Section |  min time  |  avg time  |  max time  |%varavg| %total
---------------------------------------------------------------
Pair    | 0          | 0          | 0          |   0.0 |  0.00
Neigh   | 0          | 0          | 0          |   0.0 |  0.00
Comm    | 0          | 0          | 0          |   0.0 |  0.00
Output  | 0          | 0          | 0          |   0.0 |  0.00
Modify  | 0          | 0          | 0          |   0.0 |  0.00
Other   |            | 9.537e-07  |            |       |100.00

Nlocal:    4000 ave 4000 max 4000 min
Histogram: 1 0 0 0 0 0 0 0 0 0
Nghost:    8195 ave 8195 max 8195 min
Histogram: 1 0 0 0 0 0 0 0 0 0
Neighs:    448000 ave 448000 max 448000 min
Histogram: 1 0 0 0 0 0 0 0 0 0

Total # of neighbors = 448000
Ave neighs/atom = 112
Neighbor list builds = 0
Dangerous builds = 0
print  "! ${loop_index} ${strain} ${stress} ${pea}"
! 12 0.00012 91.1665379258567 -3.54003279206543
next loop_index
jump SELF AFFINE_LOOP
change_box all xy delta ${dxy} remap units box
change_box all xy delta 0.0003615 remap units box
  triclinic box = (0 0 0) to (36.15 36.15 36.15) with tilt (0.0046995 0 0)
thermo_style custom step pe pxx pyy pzz pxy pxz pyz v_strain v_stress v_pea
run 0
WARNING: No fixes defined, atoms won't move (../verlet.cpp:55)
Per MPI rank memory allocation (min/avg/max) = 5.221 | 5.221 | 5.221 Mbytes
Step PotEng Pxx Pyy Pzz Pxy Pxz Pyz v_strain v_stress v_pea 
       0   -14160.131   -22286.563   -22286.541   -22286.593   -98.763749 2.9730424e-11 8.9301024e-11      0.00013    98.763749   -3.5400328 
Loop time of 1.19209e-06 on 1 procs for 0 steps with 4000 atoms

251.7% CPU use with 1 MPI tasks x no OpenMP threads

MPI task timing breakdown:
Section |  min time  |  avg time  |  max time  |%varavg| %total
---------------------------------------------------------------
Pair    | 0          | 0          | 0          |   0.0 |  0.00
Neigh   | 0          | 0          | 0          |   0.0 |  0.00
Comm    | 0          | 0          | 0          |   0.0 |  0.00
Output  | 0          | 0          | 0          |   0.0 |  0.00
Modify  | 0          | 0          | 0          |   0.0 |  0.00
Other   |            | 1.192e-06  |            |       |100.00

Nlocal:    4000 ave 4000 max 4000 min
Histogram: 1 0 0 0 0 0 0 0 0 0
Nghost:    8195 ave 8195 max 8195 min
Histogram: 1 0 0 0 0 0 0 0 0 0
Neighs:    448000 ave 448000 max 448000 min
Histogram: 1 0 0 0 0 0 0 0 0 0

Total # of neighbors = 448000
Ave neighs/atom = 112
Neighbor list builds = 0
Dangerous builds = 0
print  "! ${loop_index} ${strain} ${stress} ${pea}"
! 13 0.00013 98.7637492021964 -3.54003278506446
next loop_index
jump SELF AFFINE_LOOP
change_box all xy delta ${dxy} remap units box
change_box all xy delta 0.0003615 remap units box
  triclinic box = (0 0 0) to (36.15 36.15 36.15) with tilt (0.005061 0 0)
thermo_style custom step pe pxx pyy pzz pxy pxz pyz v_strain v_stress v_pea
run 0
WARNING: No fixes defined, atoms won't move (../verlet.cpp:55)
Per MPI rank memory allocation (min/avg/max) = 5.221 | 5.221 | 5.221 Mbytes
Step PotEng Pxx Pyy Pzz Pxy Pxz Pyz v_strain v_stress v_pea 
       0   -14160.131   -22286.559   -22286.534   -22286.595   -106.36096 -1.9419704e-10 5.8824165e-11      0.00014    106.36096   -3.5400328 
Loop time of 9.53674e-07 on 1 procs for 0 steps with 4000 atoms

314.6% CPU use with 1 MPI tasks x no OpenMP threads

MPI task timing breakdown:
Section |  min time  |  avg time  |  max time  |%varavg| %total
---------------------------------------------------------------
Pair    | 0          | 0          | 0          |   0.0 |  0.00
Neigh   | 0          | 0          | 0          |   0.0 |  0.00
Comm    | 0          | 0          | 0          |   0.0 |  0.00
Output  | 0          | 0          | 0          |   0.0 |  0.00
Modify  | 0          | 0          | 0          |   0.0 |  0.00
Other   |            | 9.537e-07  |            |       |100.00

Nlocal:    4000 ave 4000 max 4000 min
Histogram: 1 0 0 0 0 0 0 0 0 0
Nghost:    8195 ave 8195 max 8195 min
Histogram: 1 0 0 0 0 0 0 0 0 0
Neighs:    448000 ave 448000 max 448000 min
Histogram: 1 0 0 0 0 0 0 0 0 0

Total # of neighbors = 448000
Ave neighs/atom = 112
Neighbor list builds = 0
Dangerous builds = 0
print  "! ${loop_index} ${strain} ${stress} ${pea}"
! 14 0.00014 106.360960426387 -3.54003277750491
next loop_index
jump SELF AFFINE_LOOP
change_box all xy delta ${dxy} remap units box
change_box all xy delta 0.0003615 remap units box
  triclinic box = (0 0 0) to (36.15 36.15 36.15) with tilt (0.0054225 0 0)
thermo_style custom step pe pxx pyy pzz pxy pxz pyz v_strain v_stress v_pea
run 0
WARNING: No fixes defined, atoms won't move (../verlet.cpp:55)
Per MPI rank memory allocation (min/avg/max) = 5.221 | 5.221 | 5.221 Mbytes
Step PotEng Pxx Pyy Pzz Pxy Pxz Pyz v_strain v_stress v_pea 
       0   -14160.131   -22286.556   -22286.527   -22286.596   -113.95817 7.0493225e-11 -5.9442272e-11      0.00015    113.95817   -3.5400328 
Loop time of 1.90735e-06 on 1 procs for 0 steps with 4000 atoms

157.3% CPU use with 1 MPI tasks x no OpenMP threads

MPI task timing breakdown:
Section |  min time  |  avg time  |  max time  |%varavg| %total
---------------------------------------------------------------
Pair    | 0          | 0          | 0          |   0.0 |  0.00
Neigh   | 0          | 0          | 0          |   0.0 |  0.00
Comm    | 0          | 0          | 0          |   0.0 |  0.00
Output  | 0          | 0          | 0          |   0.0 |  0.00
Modify  | 0          | 0          | 0          |   0.0 |  0.00
Other   |            | 1.907e-06  |            |       |100.00

Nlocal:    4000 ave 4000 max 4000 min
Histogram: 1 0 0 0 0 0 0 0 0 0
Nghost:    8195 ave 8195 max 8195 min
Histogram: 1 0 0 0 0 0 0 0 0 0
Neighs:    448000 ave 448000 max 448000 min
Histogram: 1 0 0 0 0 0 0 0 0 0

Total # of neighbors = 448000
Ave neighs/atom = 112
Neighbor list builds = 0
Dangerous builds = 0
print  "! ${loop_index} ${strain} ${stress} ${pea}"
! 15 0.00015 113.958171594362 -3.54003276938224
next loop_index
jump SELF AFFINE_LOOP
change_box all xy delta ${dxy} remap units box
change_box all xy delta 0.0003615 remap units box
  triclinic box = (0 0 0) to (36.15 36.15 36.15) with tilt (0.005784 0 0)
thermo_style custom step pe pxx pyy pzz pxy pxz pyz v_strain v_stress v_pea
run 0
WARNING: No fixes defined, atoms won't move (../verlet.cpp:55)
Per MPI rank memory allocation (min/avg/max) = 5.221 | 5.221 | 5.221 Mbytes
Step PotEng Pxx Pyy Pzz Pxy Pxz Pyz v_strain v_stress v_pea 
       0   -14160.131   -22286.552   -22286.519   -22286.598   -121.55538 -3.0607496e-13 2.4181314e-10      0.00016    121.55538   -3.5400328 
Loop time of 9.53674e-07 on 1 procs for 0 steps with 4000 atoms

314.6% CPU use with 1 MPI tasks x no OpenMP threads

MPI task timing breakdown:
Section |  min time  |  avg time  |  max time  |%varavg| %total
---------------------------------------------------------------
Pair    | 0          | 0          | 0          |   0.0 |  0.00
Neigh   | 0          | 0          | 0          |   0.0 |  0.00
Comm    | 0          | 0          | 0          |   0.0 |  0.00
Output  | 0          | 0          | 0          |   0.0 |  0.00
Modify  | 0          | 0          | 0          |   0.0 |  0.00
Other   |            | 9.537e-07  |            |       |100.00

Nlocal:    4000 ave 4000 max 4000 min
Histogram: 1 0 0 0 0 0 0 0 0 0
Nghost:    8195 ave 8195 max 8195 min
Histogram: 1 0 0 0 0 0 0 0 0 0
Neighs:    448000 ave 448000 max 448000 min
Histogram: 1 0 0 0 0 0 0 0 0 0

Total # of neighbors = 448000
Ave neighs/atom = 112
Neighbor list builds = 0
Dangerous builds = 0
print  "! ${loop_index} ${strain} ${stress} ${pea}"
! 16 0.00016 121.555382702091 -3.54003276070746
next loop_index
jump SELF AFFINE_LOOP
change_box all xy delta ${dxy} remap units box
change_box all xy delta 0.0003615 remap units box
  triclinic box = (0 0 0) to (36.15 36.15 36.15) with tilt (0.0061455 0 0)
thermo_style custom step pe pxx pyy pzz pxy pxz pyz v_strain v_stress v_pea
run 0
WARNING: No fixes defined, atoms won't move (../verlet.cpp:55)
Per MPI rank memory allocation (min/avg/max) = 5.221 | 5.221 | 5.221 Mbytes
Step PotEng Pxx Pyy Pzz Pxy Pxz Pyz v_strain v_stress v_pea 
       0   -14160.131   -22286.548   -22286.511     -22286.6   -129.15259 -8.5110812e-11 -5.6444723e-11      0.00017    129.15259   -3.5400328 
Loop time of 9.53674e-07 on 1 procs for 0 steps with 4000 atoms

314.6% CPU use with 1 MPI tasks x no OpenMP threads

MPI task timing breakdown:
Section |  min time  |  avg time  |  max time  |%varavg| %total
---------------------------------------------------------------
Pair    | 0          | 0          | 0          |   0.0 |  0.00
Neigh   | 0          | 0          | 0          |   0.0 |  0.00
Comm    | 0          | 0          | 0          |   0.0 |  0.00
Output  | 0          | 0          | 0          |   0.0 |  0.00
Modify  | 0          | 0          | 0          |   0.0 |  0.00
Other   |            | 9.537e-07  |            |       |100.00

Nlocal:    4000 ave 4000 max 4000 min
Histogram: 1 0 0 0 0 0 0 0 0 0
Nghost:    8195 ave 8195 max 8195 min
Histogram: 1 0 0 0 0 0 0 0 0 0
Neighs:    448000 ave 448000 max 448000 min
Histogram: 1 0 0 0 0 0 0 0 0 0

Total # of neighbors = 448000
Ave neighs/atom = 112
Neighbor list builds = 0
Dangerous builds = 0
print  "! ${loop_index} ${strain} ${stress} ${pea}"
! 17 0.00017 129.152593745607 -3.54003275146485
next loop_index
jump SELF AFFINE_LOOP
change_box all xy delta ${dxy} remap units box
change_box all xy delta 0.0003615 remap units box
  triclinic box = (0 0 0) to (36.15 36.15 36.15) with tilt (0.006507 0 0)
thermo_style custom step pe pxx pyy pzz pxy pxz pyz v_strain v_stress v_pea
run 0
WARNING: No fixes defined, atoms won't move (../verlet.cpp:55)
Per MPI rank memory allocation (min/avg/max) = 5.221 | 5.221 | 5.221 Mbytes
Step PotEng Pxx Pyy Pzz Pxy Pxz Pyz v_strain v_stress v_pea 
       0   -14160.131   -22286.543   -22286.502   -22286.602    -136.7498 -1.2099806e-10 -1.0464292e-11      0.00018     136.7498   -3.5400327 
Loop time of 2.14577e-06 on 1 procs for 0 steps with 4000 atoms

139.8% CPU use with 1 MPI tasks x no OpenMP threads

MPI task timing breakdown:
Section |  min time  |  avg time  |  max time  |%varavg| %total
---------------------------------------------------------------
Pair    | 0          | 0          | 0          |   0.0 |  0.00
Neigh   | 0          | 0          | 0          |   0.0 |  0.00
Comm    | 0          | 0          | 0          |   0.0 |  0.00
Output  | 0          | 0          | 0          |   0.0 |  0.00
Modify  | 0          | 0          | 0          |   0.0 |  0.00
Other   |            | 2.146e-06  |            |       |100.00

Nlocal:    4000 ave 4000 max 4000 min
Histogram: 1 0 0 0 0 0 0 0 0 0
Nghost:    8195 ave 8195 max 8195 min
Histogram: 1 0 0 0 0 0 0 0 0 0
Neighs:    448000 ave 448000 max 448000 min
Histogram: 1 0 0 0 0 0 0 0 0 0

Total # of neighbors = 448000
Ave neighs/atom = 112
Neighbor list builds = 0
Dangerous builds = 0
print  "! ${loop_index} ${strain} ${stress} ${pea}"
! 18 0.00018 136.749804720844 -3.54003274166802
next loop_index
jump SELF AFFINE_LOOP
change_box all xy delta ${dxy} remap units box
change_box all xy delta 0.0003615 remap units box
  triclinic box = (0 0 0) to (36.15 36.15 36.15) with tilt (0.0068685 0 0)
thermo_style custom step pe pxx pyy pzz pxy pxz pyz v_strain v_stress v_pea
run 0
WARNING: No fixes defined, atoms won't move (../verlet.cpp:55)
Per MPI rank memory allocation (min/avg/max) = 5.221 | 5.221 | 5.221 Mbytes
Step PotEng Pxx Pyy Pzz Pxy Pxz Pyz v_strain v_stress v_pea 
       0   -14160.131   -22286.539   -22286.493   -22286.604   -144.34702 1.7892368e-11 -1.4244078e-10      0.00019    144.34702   -3.5400327 
Loop time of 9.53674e-07 on 1 procs for 0 steps with 4000 atoms

314.6% CPU use with 1 MPI tasks x no OpenMP threads

MPI task timing breakdown:
Section |  min time  |  avg time  |  max time  |%varavg| %total
---------------------------------------------------------------
Pair    | 0          | 0          | 0          |   0.0 |  0.00
Neigh   | 0          | 0          | 0          |   0.0 |  0.00
Comm    | 0          | 0          | 0          |   0.0 |  0.00
Output  | 0          | 0          | 0          |   0.0 |  0.00
Modify  | 0          | 0          | 0          |   0.0 |  0.00
Other   |            | 9.537e-07  |            |       |100.00

Nlocal:    4000 ave 4000 max 4000 min
Histogram: 1 0 0 0 0 0 0 0 0 0
Nghost:    8195 ave 8195 max 8195 min
Histogram: 1 0 0 0 0 0 0 0 0 0
Neighs:    448000 ave 448000 max 448000 min
Histogram: 1 0 0 0 0 0 0 0 0 0

Total # of neighbors = 448000
Ave neighs/atom = 112
Neighbor list builds = 0
Dangerous builds = 0
print  "! ${loop_index} ${strain} ${stress} ${pea}"
! 19 0.00019 144.347015623865 -3.54003273130734
next loop_index
jump SELF AFFINE_LOOP
change_box all xy delta ${dxy} remap units box
change_box all xy delta 0.0003615 remap units box
  triclinic box = (0 0 0) to (36.15 36.15 36.15) with tilt (0.00723 0 0)
thermo_style custom step pe pxx pyy pzz pxy pxz pyz v_strain v_stress v_pea
run 0
WARNING: No fixes defined, atoms won't move (../verlet.cpp:55)
Per MPI rank memory allocation (min/avg/max) = 5.221 | 5.221 | 5.221 Mbytes
Step PotEng Pxx Pyy Pzz Pxy Pxz Pyz v_strain v_stress v_pea 
       0   -14160.131   -22286.534   -22286.483   -22286.607   -151.94423 -7.5333269e-12 -1.7179047e-10       0.0002    151.94423   -3.5400327 
Loop time of 1.90735e-06 on 1 procs for 0 steps with 4000 atoms

157.3% CPU use with 1 MPI tasks x no OpenMP threads

MPI task timing breakdown:
Section |  min time  |  avg time  |  max time  |%varavg| %total
---------------------------------------------------------------
Pair    | 0          | 0          | 0          |   0.0 |  0.00
Neigh   | 0          | 0          | 0          |   0.0 |  0.00
Comm    | 0          | 0          | 0          |   0.0 |  0.00
Output  | 0          | 0          | 0          |   0.0 |  0.00
Modify  | 0          | 0          | 0          |   0.0 |  0.00
Other   |            | 1.907e-06  |            |       |100.00

Nlocal:    4000 ave 4000 max 4000 min
Histogram: 1 0 0 0 0 0 0 0 0 0
Nghost:    8195 ave 8195 max 8195 min
Histogram: 1 0 0 0 0 0 0 0 0 0
Neighs:    448000 ave 448000 max 448000 min
Histogram: 1 0 0 0 0 0 0 0 0 0

Total # of neighbors = 448000
Ave neighs/atom = 112
Neighbor list builds = 0
Dangerous builds = 0
print  "! ${loop_index} ${strain} ${stress} ${pea}"
! 20 0.0002 151.944226450583 -3.54003272038364
next loop_index
jump SELF AFFINE_LOOP
change_box all xy delta ${dxy} remap units box
change_box all xy delta 0.0003615 remap units box
  triclinic box = (0 0 0) to (36.15 36.15 36.15) with tilt (0.0075915 0 0)
thermo_style custom step pe pxx pyy pzz pxy pxz pyz v_strain v_stress v_pea
run 0
WARNING: No fixes defined, atoms won't move (../verlet.cpp:55)
Per MPI rank memory allocation (min/avg/max) = 5.221 | 5.221 | 5.221 Mbytes
Step PotEng Pxx Pyy Pzz Pxy Pxz Pyz v_strain v_stress v_pea 
       0   -14160.131   -22286.529   -22286.473   -22286.609   -159.54144 -1.0108231e-10 -2.2511788e-10      0.00021    159.54144   -3.5400327 
Loop time of 1.90735e-06 on 1 procs for 0 steps with 4000 atoms

157.3% CPU use with 1 MPI tasks x no OpenMP threads

MPI task timing breakdown:
Section |  min time  |  avg time  |  max time  |%varavg| %total
---------------------------------------------------------------
Pair    | 0          | 0          | 0          |   0.0 |  0.00
Neigh   | 0          | 0          | 0          |   0.0 |  0.00
Comm    | 0          | 0          | 0          |   0.0 |  0.00
Output  | 0          | 0          | 0          |   0.0 |  0.00
Modify  | 0          | 0          | 0          |   0.0 |  0.00
Other   |            | 1.907e-06  |            |       |100.00

Nlocal:    4000 ave 4000 max 4000 min
Histogram: 1 0 0 0 0 0 0 0 0 0
Nghost:    8195 ave 8195 max 8195 min
Histogram: 1 0 0 0 0 0 0 0 0 0
Neighs:    448000 ave 448000 max 448000 min
Histogram: 1 0 0 0 0 0 0 0 0 0

Total # of neighbors = 448000
Ave neighs/atom = 112
Neighbor list builds = 0
Dangerous builds = 0
print  "! ${loop_index} ${strain} ${stress} ${pea}"
! 21 0.00021 159.541437197059 -3.54003270890293
next loop_index
jump SELF AFFINE_LOOP
change_box all xy delta ${dxy} remap units box
change_box all xy delta 0.0003615 remap units box
  triclinic box = (0 0 0) to (36.15 36.15 36.15) with tilt (0.007953 0 0)
thermo_style custom step pe pxx pyy pzz pxy pxz pyz v_strain v_stress v_pea
run 0
WARNING: No fixes defined, atoms won't move (../verlet.cpp:55)
Per MPI rank memory allocation (min/avg/max) = 5.221 | 5.221 | 5.221 Mbytes
Step PotEng Pxx Pyy Pzz Pxy Pxz Pyz v_strain v_stress v_pea 
       0   -14160.131   -22286.524   -22286.462   -22286.611   -167.13865 -6.6561493e-11 3.1415559e-10      0.00022    167.13865   -3.5400327 
Loop time of 2.14577e-06 on 1 procs for 0 steps with 4000 atoms

186.4% CPU use with 1 MPI tasks x no OpenMP threads

MPI task timing breakdown:
Section |  min time  |  avg time  |  max time  |%varavg| %total
---------------------------------------------------------------
Pair    | 0          | 0          | 0          |   0.0 |  0.00
Neigh   | 0          | 0          | 0          |   0.0 |  0.00
Comm    | 0          | 0          | 0          |   0.0 |  0.00
Output  | 0          | 0          | 0          |   0.0 |  0.00
Modify  | 0          | 0          | 0          |   0.0 |  0.00
Other   |            | 2.146e-06  |            |       |100.00

Nlocal:    4000 ave 4000 max 4000 min
Histogram: 1 0 0 0 0 0 0 0 0 0
Nghost:    8195 ave 8195 max 8195 min
Histogram: 1 0 0 0 0 0 0 0 0 0
Neighs:    448000 ave 448000 max 448000 min
Histogram: 1 0 0 0 0 0 0 0 0 0

Total # of neighbors = 448000
Ave neighs/atom = 112
Neighbor list builds = 0
Dangerous builds = 0
print  "! ${loop_index} ${strain} ${stress} ${pea}"
! 22 0.00022 167.13864785916 -3.54003269686339
next loop_index
jump SELF AFFINE_LOOP
change_box all xy delta ${dxy} remap units box
change_box all xy delta 0.0003615 remap units box
  triclinic box = (0 0 0) to (36.15 36.15 36.15) with tilt (0.0083145 0 0)
thermo_style custom step pe pxx pyy pzz pxy pxz pyz v_strain v_stress v_pea
run 0
WARNING: No fixes defined, atoms won't move (../verlet.cpp:55)
Per MPI rank memory allocation (min/avg/max) = 5.221 | 5.221 | 5.221 Mbytes
Step PotEng Pxx Pyy Pzz Pxy Pxz Pyz v_strain v_stress v_pea 
       0   -14160.131   -22286.518   -22286.451   -22286.614   -174.73586 -2.1630351e-10 4.4702417e-11      0.00023    174.73586   -3.5400327 
Loop time of 1.90735e-06 on 1 procs for 0 steps with 4000 atoms

157.3% CPU use with 1 MPI tasks x no OpenMP threads

MPI task timing breakdown:
Section |  min time  |  avg time  |  max time  |%varavg| %total
---------------------------------------------------------------
Pair    | 0          | 0          | 0          |   0.0 |  0.00
Neigh   | 0          | 0          | 0          |   0.0 |  0.00
Comm    | 0          | 0          | 0          |   0.0 |  0.00
Output  | 0          | 0          | 0          |   0.0 |  0.00
Modify  | 0          | 0          | 0          |   0.0 |  0.00
Other   |            | 1.907e-06  |            |       |100.00

Nlocal:    4000 ave 4000 max 4000 min
Histogram: 1 0 0 0 0 0 0 0 0 0
Nghost:    8195 ave 8195 max 8195 min
Histogram: 1 0 0 0 0 0 0 0 0 0
Neighs:    448000 ave 448000 max 448000 min
Histogram: 1 0 0 0 0 0 0 0 0 0

Total # of neighbors = 448000
Ave neighs/atom = 112
Neighbor list builds = 0
Dangerous builds = 0
print  "! ${loop_index} ${strain} ${stress} ${pea}"
! 23 0.00023 174.735858432988 -3.5400326842549
next loop_index
jump SELF AFFINE_LOOP
change_box all xy delta ${dxy} remap units box
change_box all xy delta 0.0003615 remap units box
  triclinic box = (0 0 0) to (36.15 36.15 36.15) with tilt (0.008676 0 0)
thermo_style custom step pe pxx pyy pzz pxy pxz pyz v_strain v_stress v_pea
run 0
WARNING: No fixes defined, atoms won't move (../verlet.cpp:55)
Per MPI rank memory allocation (min/avg/max) = 5.221 | 5.221 | 5.221 Mbytes
Step PotEng Pxx Pyy Pzz Pxy Pxz Pyz v_strain v_stress v_pea 
       0   -14160.131   -22286.512   -22286.439   -22286.617   -182.33307 -9.1931886e-11 -8.0127659e-12      0.00024    182.33307   -3.5400327 
Loop time of 9.53674e-07 on 1 procs for 0 steps with 4000 atoms

314.6% CPU use with 1 MPI tasks x no OpenMP threads

MPI task timing breakdown:
Section |  min time  |  avg time  |  max time  |%varavg| %total
---------------------------------------------------------------
Pair    | 0          | 0          | 0          |   0.0 |  0.00
Neigh   | 0          | 0          | 0          |   0.0 |  0.00
Comm    | 0          | 0          | 0          |   0.0 |  0.00
Output  | 0          | 0          | 0          |   0.0 |  0.00
Modify  | 0          | 0          | 0          |   0.0 |  0.00
Other   |            | 9.537e-07  |            |       |100.00

Nlocal:    4000 ave 4000 max 4000 min
Histogram: 1 0 0 0 0 0 0 0 0 0
Nghost:    8195 ave 8195 max 8195 min
Histogram: 1 0 0 0 0 0 0 0 0 0
Neighs:    448000 ave 448000 max 448000 min
Histogram: 1 0 0 0 0 0 0 0 0 0

Total # of neighbors = 448000
Ave neighs/atom = 112
Neighbor list builds = 0
Dangerous builds = 0
print  "! ${loop_index} ${strain} ${stress} ${pea}"
! 24 0.00024 182.333068914487 -3.54003267110063
next loop_index
jump SELF AFFINE_LOOP
change_box all xy delta ${dxy} remap units box
change_box all xy delta 0.0003615 remap units box
  triclinic box = (0 0 0) to (36.15 36.15 36.15) with tilt (0.0090375 0 0)
thermo_style custom step pe pxx pyy pzz pxy pxz pyz v_strain v_stress v_pea
run 0
WARNING: No fixes defined, atoms won't move (../verlet.cpp:55)
Per MPI rank memory allocation (min/avg/max) = 5.221 | 5.221 | 5.221 Mbytes
Step PotEng Pxx Pyy Pzz Pxy Pxz Pyz v_strain v_stress v_pea 
       0   -14160.131   -22286.506   -22286.427    -22286.62   -189.93028 -2.5279438e-11 -1.2563825e-11      0.00025    189.93028   -3.5400327 
Loop time of 9.53674e-07 on 1 procs for 0 steps with 4000 atoms

419.4% CPU use with 1 MPI tasks x no OpenMP threads

MPI task timing breakdown:
Section |  min time  |  avg time  |  max time  |%varavg| %total
---------------------------------------------------------------
Pair    | 0          | 0          | 0          |   0.0 |  0.00
Neigh   | 0          | 0          | 0          |   0.0 |  0.00
Comm    | 0          | 0          | 0          |   0.0 |  0.00
Output  | 0          | 0          | 0          |   0.0 |  0.00
Modify  | 0          | 0          | 0          |   0.0 |  0.00
Other   |            | 9.537e-07  |            |       |100.00

Nlocal:    4000 ave 4000 max 4000 min
Histogram: 1 0 0 0 0 0 0 0 0 0
Nghost:    8195 ave 8195 max 8195 min
Histogram: 1 0 0 0 0 0 0 0 0 0
Neighs:    448000 ave 448000 max 448000 min
Histogram: 1 0 0 0 0 0 0 0 0 0

Total # of neighbors = 448000
Ave neighs/atom = 112
Neighbor list builds = 0
Dangerous builds = 0
print  "! ${loop_index} ${strain} ${stress} ${pea}"
! 25 0.00025 189.93027929961 -3.54003265738634
next loop_index
jump SELF AFFINE_LOOP
change_box all xy delta ${dxy} remap units box
change_box all xy delta 0.0003615 remap units box
  triclinic box = (0 0 0) to (36.15 36.15 36.15) with tilt (0.009399 0 0)
thermo_style custom step pe pxx pyy pzz pxy pxz pyz v_strain v_stress v_pea
run 0
WARNING: No fixes defined, atoms won't move (../verlet.cpp:55)
Per MPI rank memory allocation (min/avg/max) = 5.221 | 5.221 | 5.221 Mbytes
Step PotEng Pxx Pyy Pzz Pxy Pxz Pyz v_strain v_stress v_pea 
       0   -14160.131     -22286.5   -22286.414   -22286.623   -197.52749 -3.3539255e-11 9.033606e-11      0.00026    197.52749   -3.5400326 
Loop time of 9.53674e-07 on 1 procs for 0 steps with 4000 atoms

314.6% CPU use with 1 MPI tasks x no OpenMP threads

MPI task timing breakdown:
Section |  min time  |  avg time  |  max time  |%varavg| %total
---------------------------------------------------------------
Pair    | 0          | 0          | 0          |   0.0 |  0.00
Neigh   | 0          | 0          | 0          |   0.0 |  0.00
Comm    | 0          | 0          | 0          |   0.0 |  0.00
Output  | 0          | 0          | 0          |   0.0 |  0.00
Modify  | 0          | 0          | 0          |   0.0 |  0.00
Other   |            | 9.537e-07  |            |       |100.00

Nlocal:    4000 ave 4000 max 4000 min
Histogram: 1 0 0 0 0 0 0 0 0 0
Nghost:    8195 ave 8195 max 8195 min
Histogram: 1 0 0 0 0 0 0 0 0 0
Neighs:    448000 ave 448000 max 448000 min
Histogram: 1 0 0 0 0 0 0 0 0 0

Total # of neighbors = 448000
Ave neighs/atom = 112
Neighbor list builds = 0
Dangerous builds = 0
print  "! ${loop_index} ${strain} ${stress} ${pea}"
! 26 0.00026 197.527489584307 -3.54003264309682
next loop_index
jump SELF AFFINE_LOOP
change_box all xy delta ${dxy} remap units box
change_box all xy delta 0.0003615 remap units box
  triclinic box = (0 0 0) to (36.15 36.15 36.15) with tilt (0.0097605 0 0)
thermo_style custom step pe pxx pyy pzz pxy pxz pyz v_strain v_stress v_pea
run 0
WARNING: No fixes defined, atoms won't move (../verlet.cpp:55)
Per MPI rank memory allocation (min/avg/max) = 5.221 | 5.221 | 5.221 Mbytes
Step PotEng Pxx Pyy Pzz Pxy Pxz Pyz v_strain v_stress v_pea 
       0   -14160.131   -22286.494   -22286.401   -22286.626    -205.1247 3.0982581e-11 9.3018268e-11      0.00027     205.1247   -3.5400326 
Loop time of 9.53674e-07 on 1 procs for 0 steps with 4000 atoms

314.6% CPU use with 1 MPI tasks x no OpenMP threads

MPI task timing breakdown:
Section |  min time  |  avg time  |  max time  |%varavg| %total
---------------------------------------------------------------
Pair    | 0          | 0          | 0          |   0.0 |  0.00
Neigh   | 0          | 0          | 0          |   0.0 |  0.00
Comm    | 0          | 0          | 0          |   0.0 |  0.00
Output  | 0          | 0          | 0          |   0.0 |  0.00
Modify  | 0          | 0          | 0          |   0.0 |  0.00
Other   |            | 9.537e-07  |            |       |100.00

Nlocal:    4000 ave 4000 max 4000 min
Histogram: 1 0 0 0 0 0 0 0 0 0
Nghost:    8195 ave 8195 max 8195 min
Histogram: 1 0 0 0 0 0 0 0 0 0
Neighs:    448000 ave 448000 max 448000 min
Histogram: 1 0 0 0 0 0 0 0 0 0

Total # of neighbors = 448000
Ave neighs/atom = 112
Neighbor list builds = 0
Dangerous builds = 0
print  "! ${loop_index} ${strain} ${stress} ${pea}"
! 27 0.00027 205.1246997647 -3.54003262826044
next loop_index
jump SELF AFFINE_LOOP
change_box all xy delta ${dxy} remap units box
change_box all xy delta 0.0003615 remap units box
  triclinic box = (0 0 0) to (36.15 36.15 36.15) with tilt (0.010122 0 0)
thermo_style custom step pe pxx pyy pzz pxy pxz pyz v_strain v_stress v_pea
run 0
WARNING: No fixes defined, atoms won't move (../verlet.cpp:55)
Per MPI rank memory allocation (min/avg/max) = 5.221 | 5.221 | 5.221 Mbytes
Step PotEng Pxx Pyy Pzz Pxy Pxz Pyz v_strain v_stress v_pea 
       0    -14160.13   -22286.487   -22286.387   -22286.629   -212.72191 2.1430159e-11  9.66356e-11      0.00028    212.72191   -3.5400326 
Loop time of 2.14577e-06 on 1 procs for 0 steps with 4000 atoms

139.8% CPU use with 1 MPI tasks x no OpenMP threads

MPI task timing breakdown:
Section |  min time  |  avg time  |  max time  |%varavg| %total
---------------------------------------------------------------
Pair    | 0          | 0          | 0          |   0.0 |  0.00
Neigh   | 0          | 0          | 0          |   0.0 |  0.00
Comm    | 0          | 0          | 0          |   0.0 |  0.00
Output  | 0          | 0          | 0          |   0.0 |  0.00
Modify  | 0          | 0          | 0          |   0.0 |  0.00
Other   |            | 2.146e-06  |            |       |100.00

Nlocal:    4000 ave 4000 max 4000 min
Histogram: 1 0 0 0 0 0 0 0 0 0
Nghost:    8195 ave 8195 max 8195 min
Histogram: 1 0 0 0 0 0 0 0 0 0
Neighs:    448000 ave 448000 max 448000 min
Histogram: 1 0 0 0 0 0 0 0 0 0

Total # of neighbors = 448000
Ave neighs/atom = 112
Neighbor list builds = 0
Dangerous builds = 0
print  "! ${loop_index} ${strain} ${stress} ${pea}"
! 28 0.00028 212.721909836718 -3.54003261285422
next loop_index
jump SELF AFFINE_LOOP
change_box all xy delta ${dxy} remap units box
change_box all xy delta 0.0003615 remap units box
  triclinic box = (0 0 0) to (36.15 36.15 36.15) with tilt (0.0104835 0 0)
thermo_style custom step pe pxx pyy pzz pxy pxz pyz v_strain v_stress v_pea
run 0
WARNING: No fixes defined, atoms won't move (../verlet.cpp:55)
Per MPI rank memory allocation (min/avg/max) = 5.221 | 5.221 | 5.221 Mbytes
Step PotEng Pxx Pyy Pzz Pxy Pxz Pyz v_strain v_stress v_pea 
       0    -14160.13    -22286.48   -22286.373   -22286.632   -220.31912 -1.2383225e-11 1.8394134e-11      0.00029    220.31912   -3.5400326 
Loop time of 1.19209e-06 on 1 procs for 0 steps with 4000 atoms

251.7% CPU use with 1 MPI tasks x no OpenMP threads

MPI task timing breakdown:
Section |  min time  |  avg time  |  max time  |%varavg| %total
---------------------------------------------------------------
Pair    | 0          | 0          | 0          |   0.0 |  0.00
Neigh   | 0          | 0          | 0          |   0.0 |  0.00
Comm    | 0          | 0          | 0          |   0.0 |  0.00
Output  | 0          | 0          | 0          |   0.0 |  0.00
Modify  | 0          | 0          | 0          |   0.0 |  0.00
Other   |            | 1.192e-06  |            |       |100.00

Nlocal:    4000 ave 4000 max 4000 min
Histogram: 1 0 0 0 0 0 0 0 0 0
Nghost:    8195 ave 8195 max 8195 min
Histogram: 1 0 0 0 0 0 0 0 0 0
Neighs:    448000 ave 448000 max 448000 min
Histogram: 1 0 0 0 0 0 0 0 0 0

Total # of neighbors = 448000
Ave neighs/atom = 112
Neighbor list builds = 0
Dangerous builds = 0
print  "! ${loop_index} ${strain} ${stress} ${pea}"
! 29 0.00029 220.319119796229 -3.54003259690185
next loop_index
jump SELF AFFINE_LOOP
change_box all xy delta ${dxy} remap units box
change_box all xy delta 0.0003615 remap units box
  triclinic box = (0 0 0) to (36.15 36.15 36.15) with tilt (0.010845 0 0)
thermo_style custom step pe pxx pyy pzz pxy pxz pyz v_strain v_stress v_pea
run 0
WARNING: No fixes defined, atoms won't move (../verlet.cpp:55)
Per MPI rank memory allocation (min/avg/max) = 5.221 | 5.221 | 5.221 Mbytes
Step PotEng Pxx Pyy Pzz Pxy Pxz Pyz v_strain v_stress v_pea 
       0    -14160.13   -22286.472   -22286.358   -22286.636   -227.91633 -2.0978339e-10 6.4036235e-11       0.0003    227.91633   -3.5400326 
Loop time of 1.19209e-06 on 1 procs for 0 steps with 4000 atoms

251.7% CPU use with 1 MPI tasks x no OpenMP threads

MPI task timing breakdown:
Section |  min time  |  avg time  |  max time  |%varavg| %total
---------------------------------------------------------------
Pair    | 0          | 0          | 0          |   0.0 |  0.00
Neigh   | 0          | 0          | 0          |   0.0 |  0.00
Comm    | 0          | 0          | 0          |   0.0 |  0.00
Output  | 0          | 0          | 0          |   0.0 |  0.00
Modify  | 0          | 0          | 0          |   0.0 |  0.00
Other   |            | 1.192e-06  |            |       |100.00

Nlocal:    4000 ave 4000 max 4000 min
Histogram: 1 0 0 0 0 0 0 0 0 0
Nghost:    8195 ave 8195 max 8195 min
Histogram: 1 0 0 0 0 0 0 0 0 0
Neighs:    448000 ave 448000 max 448000 min
Histogram: 1 0 0 0 0 0 0 0 0 0

Total # of neighbors = 448000
Ave neighs/atom = 112
Neighbor list builds = 0
Dangerous builds = 0
print  "! ${loop_index} ${strain} ${stress} ${pea}"
! 30 0.0003 227.91632963941 -3.54003258037121
next loop_index
jump SELF AFFINE_LOOP
change_box all xy delta ${dxy} remap units box
change_box all xy delta 0.0003615 remap units box
  triclinic box = (0 0 0) to (36.15 36.15 36.15) with tilt (0.0112065 0 0)
thermo_style custom step pe pxx pyy pzz pxy pxz pyz v_strain v_stress v_pea
run 0
WARNING: No fixes defined, atoms won't move (../verlet.cpp:55)
Per MPI rank memory allocation (min/avg/max) = 5.221 | 5.221 | 5.221 Mbytes
Step PotEng Pxx Pyy Pzz Pxy Pxz Pyz v_strain v_stress v_pea 
       0    -14160.13   -22286.465   -22286.343   -22286.639   -235.51354 3.8793302e-11 2.5939704e-10      0.00031    235.51354   -3.5400326 
Loop time of 1.90735e-06 on 1 procs for 0 steps with 4000 atoms

157.3% CPU use with 1 MPI tasks x no OpenMP threads

MPI task timing breakdown:
Section |  min time  |  avg time  |  max time  |%varavg| %total
---------------------------------------------------------------
Pair    | 0          | 0          | 0          |   0.0 |  0.00
Neigh   | 0          | 0          | 0          |   0.0 |  0.00
Comm    | 0          | 0          | 0          |   0.0 |  0.00
Output  | 0          | 0          | 0          |   0.0 |  0.00
Modify  | 0          | 0          | 0          |   0.0 |  0.00
Other   |            | 1.907e-06  |            |       |100.00

Nlocal:    4000 ave 4000 max 4000 min
Histogram: 1 0 0 0 0 0 0 0 0 0
Nghost:    8195 ave 8195 max 8195 min
Histogram: 1 0 0 0 0 0 0 0 0 0
Neighs:    448000 ave 448000 max 448000 min
Histogram: 1 0 0 0 0 0 0 0 0 0

Total # of neighbors = 448000
Ave neighs/atom = 112
Neighbor list builds = 0
Dangerous builds = 0
print  "! ${loop_index} ${strain} ${stress} ${pea}"
! 31 0.00031 235.513539362109 -3.54003256329217
next loop_index
jump SELF AFFINE_LOOP
change_box all xy delta ${dxy} remap units box
change_box all xy delta 0.0003615 remap units box
  triclinic box = (0 0 0) to (36.15 36.15 36.15) with tilt (0.011568 0 0)
thermo_style custom step pe pxx pyy pzz pxy pxz pyz v_strain v_stress v_pea
run 0
WARNING: No fixes defined, atoms won't move (../verlet.cpp:55)
Per MPI rank memory allocation (min/avg/max) = 5.221 | 5.221 | 5.221 Mbytes
Step PotEng Pxx Pyy Pzz Pxy Pxz Pyz v_strain v_stress v_pea 
       0    -14160.13   -22286.457   -22286.327   -22286.643   -243.11075 4.5641703e-11 -1.4401858e-10      0.00032    243.11075   -3.5400325 
Loop time of 1.19209e-06 on 1 procs for 0 steps with 4000 atoms

251.7% CPU use with 1 MPI tasks x no OpenMP threads

MPI task timing breakdown:
Section |  min time  |  avg time  |  max time  |%varavg| %total
---------------------------------------------------------------
Pair    | 0          | 0          | 0          |   0.0 |  0.00
Neigh   | 0          | 0          | 0          |   0.0 |  0.00
Comm    | 0          | 0          | 0          |   0.0 |  0.00
Output  | 0          | 0          | 0          |   0.0 |  0.00
Modify  | 0          | 0          | 0          |   0.0 |  0.00
Other   |            | 1.192e-06  |            |       |100.00

Nlocal:    4000 ave 4000 max 4000 min
Histogram: 1 0 0 0 0 0 0 0 0 0
Nghost:    8195 ave 8195 max 8195 min
Histogram: 1 0 0 0 0 0 0 0 0 0
Neighs:    448000 ave 448000 max 448000 min
Histogram: 1 0 0 0 0 0 0 0 0 0

Total # of neighbors = 448000
Ave neighs/atom = 112
Neighbor list builds = 0
Dangerous builds = 0
print  "! ${loop_index} ${strain} ${stress} ${pea}"
! 32 0.00032 243.110748960355 -3.54003254565556
next loop_index
jump SELF AFFINE_LOOP
change_box all xy delta ${dxy} remap units box
change_box all xy delta 0.0003615 remap units box
  triclinic box = (0 0 0) to (36.15 36.15 36.15) with tilt (0.0119295 0 0)
thermo_style custom step pe pxx pyy pzz pxy pxz pyz v_strain v_stress v_pea
run 0
WARNING: No fixes defined, atoms won't move (../verlet.cpp:55)
Per MPI rank memory allocation (min/avg/max) = 5.221 | 5.221 | 5.221 Mbytes
Step PotEng Pxx Pyy Pzz Pxy Pxz Pyz v_strain v_stress v_pea 
       0    -14160.13   -22286.449   -22286.311   -22286.647   -250.70796 -9.2068553e-11 4.1379422e-11      0.00033    250.70796   -3.5400325 
Loop time of 1.90735e-06 on 1 procs for 0 steps with 4000 atoms

157.3% CPU use with 1 MPI tasks x no OpenMP threads

MPI task timing breakdown:
Section |  min time  |  avg time  |  max time  |%varavg| %total
---------------------------------------------------------------
Pair    | 0          | 0          | 0          |   0.0 |  0.00
Neigh   | 0          | 0          | 0          |   0.0 |  0.00
Comm    | 0          | 0          | 0          |   0.0 |  0.00
Output  | 0          | 0          | 0          |   0.0 |  0.00
Modify  | 0          | 0          | 0          |   0.0 |  0.00
Other   |            | 1.907e-06  |            |       |100.00

Nlocal:    4000 ave 4000 max 4000 min
Histogram: 1 0 0 0 0 0 0 0 0 0
Nghost:    8195 ave 8195 max 8195 min
Histogram: 1 0 0 0 0 0 0 0 0 0
Neighs:    448000 ave 448000 max 448000 min
Histogram: 1 0 0 0 0 0 0 0 0 0

Total # of neighbors = 448000
Ave neighs/atom = 112
Neighbor list builds = 0
Dangerous builds = 0
print  "! ${loop_index} ${strain} ${stress} ${pea}"
! 33 0.00033 250.70795843017 -3.54003252745578
next loop_index
jump SELF AFFINE_LOOP
change_box all xy delta ${dxy} remap units box
change_box all xy delta 0.0003615 remap units box
  triclinic box = (0 0 0) to (36.15 36.15 36.15) with tilt (0.012291 0 0)
thermo_style custom step pe pxx pyy pzz pxy pxz pyz v_strain v_stress v_pea
run 0
WARNING: No fixes defined, atoms won't move (../verlet.cpp:55)
Per MPI rank memory allocation (min/avg/max) = 5.221 | 5.221 | 5.221 Mbytes
Step PotEng Pxx Pyy Pzz Pxy Pxz Pyz v_strain v_stress v_pea 
       0    -14160.13   -22286.441   -22286.294    -22286.65   -258.30517 -2.129661e-11 2.9072803e-10      0.00034    258.30517   -3.5400325 
Loop time of 9.53674e-07 on 1 procs for 0 steps with 4000 atoms

314.6% CPU use with 1 MPI tasks x no OpenMP threads

MPI task timing breakdown:
Section |  min time  |  avg time  |  max time  |%varavg| %total
---------------------------------------------------------------
Pair    | 0          | 0          | 0          |   0.0 |  0.00
Neigh   | 0          | 0          | 0          |   0.0 |  0.00
Comm    | 0          | 0          | 0          |   0.0 |  0.00
Output  | 0          | 0          | 0          |   0.0 |  0.00
Modify  | 0          | 0          | 0          |   0.0 |  0.00
Other   |            | 9.537e-07  |            |       |100.00

Nlocal:    4000 ave 4000 max 4000 min
Histogram: 1 0 0 0 0 0 0 0 0 0
Nghost:    8195 ave 8195 max 8195 min
Histogram: 1 0 0 0 0 0 0 0 0 0
Neighs:    448000 ave 448000 max 448000 min
Histogram: 1 0 0 0 0 0 0 0 0 0

Total # of neighbors = 448000
Ave neighs/atom = 112
Neighbor list builds = 0
Dangerous builds = 0
print  "! ${loop_index} ${strain} ${stress} ${pea}"
! 34 0.00034 258.305167767477 -3.54003250869335
next loop_index
jump SELF AFFINE_LOOP
change_box all xy delta ${dxy} remap units box
change_box all xy delta 0.0003615 remap units box
  triclinic box = (0 0 0) to (36.15 36.15 36.15) with tilt (0.0126525 0 0)
thermo_style custom step pe pxx pyy pzz pxy pxz pyz v_strain v_stress v_pea
run 0
WARNING: No fixes defined, atoms won't move (../verlet.cpp:55)
Per MPI rank memory allocation (min/avg/max) = 5.221 | 5.221 | 5.221 Mbytes
Step PotEng Pxx Pyy Pzz Pxy Pxz Pyz v_strain v_stress v_pea 
       0    -14160.13   -22286.432   -22286.277   -22286.654   -265.90238 -3.0189757e-11 -1.0355788e-10      0.00035    265.90238   -3.5400325 
Loop time of 1.90735e-06 on 1 procs for 0 steps with 4000 atoms

157.3% CPU use with 1 MPI tasks x no OpenMP threads

MPI task timing breakdown:
Section |  min time  |  avg time  |  max time  |%varavg| %total
---------------------------------------------------------------
Pair    | 0          | 0          | 0          |   0.0 |  0.00
Neigh   | 0          | 0          | 0          |   0.0 |  0.00
Comm    | 0          | 0          | 0          |   0.0 |  0.00
Output  | 0          | 0          | 0          |   0.0 |  0.00
Modify  | 0          | 0          | 0          |   0.0 |  0.00
Other   |            | 1.907e-06  |            |       |100.00

Nlocal:    4000 ave 4000 max 4000 min
Histogram: 1 0 0 0 0 0 0 0 0 0
Nghost:    8195 ave 8195 max 8195 min
Histogram: 1 0 0 0 0 0 0 0 0 0
Neighs:    448000 ave 448000 max 448000 min
Histogram: 1 0 0 0 0 0 0 0 0 0

Total # of neighbors = 448000
Ave neighs/atom = 112
Neighbor list builds = 0
Dangerous builds = 0
print  "! ${loop_index} ${strain} ${stress} ${pea}"
! 35 0.00035 265.902376968285 -3.54003248937282
next loop_index
jump SELF AFFINE_LOOP
change_box all xy delta ${dxy} remap units box
change_box all xy delta 0.0003615 remap units box
  triclinic box = (0 0 0) to (36.15 36.15 36.15) with tilt (0.013014 0 0)
thermo_style custom step pe pxx pyy pzz pxy pxz pyz v_strain v_stress v_pea
run 0
WARNING: No fixes defined, atoms won't move (../verlet.cpp:55)
Per MPI rank memory allocation (min/avg/max) = 5.221 | 5.221 | 5.221 Mbytes
Step PotEng Pxx Pyy Pzz Pxy Pxz Pyz v_strain v_stress v_pea 
       0    -14160.13   -22286.424   -22286.259   -22286.659   -273.49959 8.0196345e-12 -5.1589662e-11      0.00036    273.49959   -3.5400325 
Loop time of 2.14577e-06 on 1 procs for 0 steps with 4000 atoms

186.4% CPU use with 1 MPI tasks x no OpenMP threads

MPI task timing breakdown:
Section |  min time  |  avg time  |  max time  |%varavg| %total
---------------------------------------------------------------
Pair    | 0          | 0          | 0          |   0.0 |  0.00
Neigh   | 0          | 0          | 0          |   0.0 |  0.00
Comm    | 0          | 0          | 0          |   0.0 |  0.00
Output  | 0          | 0          | 0          |   0.0 |  0.00
Modify  | 0          | 0          | 0          |   0.0 |  0.00
Other   |            | 2.146e-06  |            |       |100.00

Nlocal:    4000 ave 4000 max 4000 min
Histogram: 1 0 0 0 0 0 0 0 0 0
Nghost:    8195 ave 8195 max 8195 min
Histogram: 1 0 0 0 0 0 0 0 0 0
Neighs:    448000 ave 448000 max 448000 min
Histogram: 1 0 0 0 0 0 0 0 0 0

Total # of neighbors = 448000
Ave neighs/atom = 112
Neighbor list builds = 0
Dangerous builds = 0
print  "! ${loop_index} ${strain} ${stress} ${pea}"
! 36 0.00036 273.49958602857 -3.54003246949204
next loop_index
jump SELF AFFINE_LOOP
change_box all xy delta ${dxy} remap units box
change_box all xy delta 0.0003615 remap units box
  triclinic box = (0 0 0) to (36.15 36.15 36.15) with tilt (0.0133755 0 0)
thermo_style custom step pe pxx pyy pzz pxy pxz pyz v_strain v_stress v_pea
run 0
WARNING: No fixes defined, atoms won't move (../verlet.cpp:55)
Per MPI rank memory allocation (min/avg/max) = 5.221 | 5.221 | 5.221 Mbytes
Step PotEng Pxx Pyy Pzz Pxy Pxz Pyz v_strain v_stress v_pea 
       0    -14160.13   -22286.415   -22286.241   -22286.663   -281.09679 -4.7674124e-11 -2.2373563e-10      0.00037    281.09679   -3.5400324 
Loop time of 9.53674e-07 on 1 procs for 0 steps with 4000 atoms

314.6% CPU use with 1 MPI tasks x no OpenMP threads

MPI task timing breakdown:
Section |  min time  |  avg time  |  max time  |%varavg| %total
---------------------------------------------------------------
Pair    | 0          | 0          | 0          |   0.0 |  0.00
Neigh   | 0          | 0          | 0          |   0.0 |  0.00
Comm    | 0          | 0          | 0          |   0.0 |  0.00
Output  | 0          | 0          | 0          |   0.0 |  0.00
Modify  | 0          | 0          | 0          |   0.0 |  0.00
Other   |            | 9.537e-07  |            |       |100.00

Nlocal:    4000 ave 4000 max 4000 min
Histogram: 1 0 0 0 0 0 0 0 0 0
Nghost:    8195 ave 8195 max 8195 min
Histogram: 1 0 0 0 0 0 0 0 0 0
Neighs:    448000 ave 448000 max 448000 min
Histogram: 1 0 0 0 0 0 0 0 0 0

Total # of neighbors = 448000
Ave neighs/atom = 112
Neighbor list builds = 0
Dangerous builds = 0
print  "! ${loop_index} ${strain} ${stress} ${pea}"
! 37 0.00037 281.096794944352 -3.54003244904991
next loop_index
jump SELF AFFINE_LOOP
change_box all xy delta ${dxy} remap units box
change_box all xy delta 0.0003615 remap units box
  triclinic box = (0 0 0) to (36.15 36.15 36.15) with tilt (0.013737 0 0)
thermo_style custom step pe pxx pyy pzz pxy pxz pyz v_strain v_stress v_pea
run 0
WARNING: No fixes defined, atoms won't move (../verlet.cpp:55)
Per MPI rank memory allocation (min/avg/max) = 5.221 | 5.221 | 5.221 Mbytes
Step PotEng Pxx Pyy Pzz Pxy Pxz Pyz v_strain v_stress v_pea 
       0    -14160.13   -22286.405   -22286.222   -22286.667     -288.694 -9.0936149e-11 9.0298687e-11      0.00038      288.694   -3.5400324 
Loop time of 1.90735e-06 on 1 procs for 0 steps with 4000 atoms

209.7% CPU use with 1 MPI tasks x no OpenMP threads

MPI task timing breakdown:
Section |  min time  |  avg time  |  max time  |%varavg| %total
---------------------------------------------------------------
Pair    | 0          | 0          | 0          |   0.0 |  0.00
Neigh   | 0          | 0          | 0          |   0.0 |  0.00
Comm    | 0          | 0          | 0          |   0.0 |  0.00
Output  | 0          | 0          | 0          |   0.0 |  0.00
Modify  | 0          | 0          | 0          |   0.0 |  0.00
Other   |            | 1.907e-06  |            |       |100.00

Nlocal:    4000 ave 4000 max 4000 min
Histogram: 1 0 0 0 0 0 0 0 0 0
Nghost:    8195 ave 8195 max 8195 min
Histogram: 1 0 0 0 0 0 0 0 0 0
Neighs:    448000 ave 448000 max 448000 min
Histogram: 1 0 0 0 0 0 0 0 0 0

Total # of neighbors = 448000
Ave neighs/atom = 112
Neighbor list builds = 0
Dangerous builds = 0
print  "! ${loop_index} ${strain} ${stress} ${pea}"
! 38 0.00038 288.694003711572 -3.54003242804758
next loop_index
jump SELF AFFINE_LOOP
change_box all xy delta ${dxy} remap units box
change_box all xy delta 0.0003615 remap units box
  triclinic box = (0 0 0) to (36.15 36.15 36.15) with tilt (0.0140985 0 0)
thermo_style custom step pe pxx pyy pzz pxy pxz pyz v_strain v_stress v_pea
run 0
WARNING: No fixes defined, atoms won't move (../verlet.cpp:55)
Per MPI rank memory allocation (min/avg/max) = 5.221 | 5.221 | 5.221 Mbytes
Step PotEng Pxx Pyy Pzz Pxy Pxz Pyz v_strain v_stress v_pea 
       0    -14160.13   -22286.396   -22286.203   -22286.672   -296.29121 -3.6505432e-12 1.1486069e-10      0.00039    296.29121   -3.5400324 
Loop time of 9.53674e-07 on 1 procs for 0 steps with 4000 atoms

209.7% CPU use with 1 MPI tasks x no OpenMP threads

MPI task timing breakdown:
Section |  min time  |  avg time  |  max time  |%varavg| %total
---------------------------------------------------------------
Pair    | 0          | 0          | 0          |   0.0 |  0.00
Neigh   | 0          | 0          | 0          |   0.0 |  0.00
Comm    | 0          | 0          | 0          |   0.0 |  0.00
Output  | 0          | 0          | 0          |   0.0 |  0.00
Modify  | 0          | 0          | 0          |   0.0 |  0.00
Other   |            | 9.537e-07  |            |       |100.00

Nlocal:    4000 ave 4000 max 4000 min
Histogram: 1 0 0 0 0 0 0 0 0 0
Nghost:    8195 ave 8195 max 8195 min
Histogram: 1 0 0 0 0 0 0 0 0 0
Neighs:    448000 ave 448000 max 448000 min
Histogram: 1 0 0 0 0 0 0 0 0 0

Total # of neighbors = 448000
Ave neighs/atom = 112
Neighbor list builds = 0
Dangerous builds = 0
print  "! ${loop_index} ${strain} ${stress} ${pea}"
! 39 0.00039 296.29121232627 -3.54003240648941
next loop_index
jump SELF AFFINE_LOOP
change_box all xy delta ${dxy} remap units box
change_box all xy delta 0.0003615 remap units box
  triclinic box = (0 0 0) to (36.15 36.15 36.15) with tilt (0.01446 0 0)
thermo_style custom step pe pxx pyy pzz pxy pxz pyz v_strain v_stress v_pea
run 0
WARNING: No fixes defined, atoms won't move (../verlet.cpp:55)
Per MPI rank memory allocation (min/avg/max) = 5.221 | 5.221 | 5.221 Mbytes
Step PotEng Pxx Pyy Pzz Pxy Pxz Pyz v_strain v_stress v_pea 
       0    -14160.13   -22286.386   -22286.183   -22286.676   -303.88842 -6.8619505e-11 -1.1268586e-10       0.0004    303.88842   -3.5400324 
Loop time of 1.90735e-06 on 1 procs for 0 steps with 4000 atoms

157.3% CPU use with 1 MPI tasks x no OpenMP threads

MPI task timing breakdown:
Section |  min time  |  avg time  |  max time  |%varavg| %total
---------------------------------------------------------------
Pair    | 0          | 0          | 0          |   0.0 |  0.00
Neigh   | 0          | 0          | 0          |   0.0 |  0.00
Comm    | 0          | 0          | 0          |   0.0 |  0.00
Output  | 0          | 0          | 0          |   0.0 |  0.00
Modify  | 0          | 0          | 0          |   0.0 |  0.00
Other   |            | 1.907e-06  |            |       |100.00

Nlocal:    4000 ave 4000 max 4000 min
Histogram: 1 0 0 0 0 0 0 0 0 0
Nghost:    8195 ave 8195 max 8195 min
Histogram: 1 0 0 0 0 0 0 0 0 0
Neighs:    448000 ave 448000 max 448000 min
Histogram: 1 0 0 0 0 0 0 0 0 0

Total # of neighbors = 448000
Ave neighs/atom = 112
Neighbor list builds = 0
Dangerous builds = 0
print  "! ${loop_index} ${strain} ${stress} ${pea}"
! 40 0.0004 303.888420784356 -3.5400323843659
next loop_index
jump SELF AFFINE_LOOP
change_box all xy delta ${dxy} remap units box
change_box all xy delta 0.0003615 remap units box
  triclinic box = (0 0 0) to (36.15 36.15 36.15) with tilt (0.0148215 0 0)
thermo_style custom step pe pxx pyy pzz pxy pxz pyz v_strain v_stress v_pea
run 0
WARNING: No fixes defined, atoms won't move (../verlet.cpp:55)
Per MPI rank memory allocation (min/avg/max) = 5.221 | 5.221 | 5.221 Mbytes
Step PotEng Pxx Pyy Pzz Pxy Pxz Pyz v_strain v_stress v_pea 
       0   -14160.129   -22286.376   -22286.163   -22286.681   -311.48563 -1.2390305e-10 -3.7570695e-10      0.00041    311.48563   -3.5400324 
Loop time of 9.53674e-07 on 1 procs for 0 steps with 4000 atoms

314.6% CPU use with 1 MPI tasks x no OpenMP threads

MPI task timing breakdown:
Section |  min time  |  avg time  |  max time  |%varavg| %total
---------------------------------------------------------------
Pair    | 0          | 0          | 0          |   0.0 |  0.00
Neigh   | 0          | 0          | 0          |   0.0 |  0.00
Comm    | 0          | 0          | 0          |   0.0 |  0.00
Output  | 0          | 0          | 0          |   0.0 |  0.00
Modify  | 0          | 0          | 0          |   0.0 |  0.00
Other   |            | 9.537e-07  |            |       |100.00

Nlocal:    4000 ave 4000 max 4000 min
Histogram: 1 0 0 0 0 0 0 0 0 0
Nghost:    8195 ave 8195 max 8195 min
Histogram: 1 0 0 0 0 0 0 0 0 0
Neighs:    448000 ave 448000 max 448000 min
Histogram: 1 0 0 0 0 0 0 0 0 0

Total # of neighbors = 448000
Ave neighs/atom = 112
Neighbor list builds = 0
Dangerous builds = 0
print  "! ${loop_index} ${strain} ${stress} ${pea}"
! 41 0.00041 311.485629081902 -3.54003236168964
next loop_index
jump SELF AFFINE_LOOP
change_box all xy delta ${dxy} remap units box
change_box all xy delta 0.0003615 remap units box
  triclinic box = (0 0 0) to (36.15 36.15 36.15) with tilt (0.015183 0 0)
thermo_style custom step pe pxx pyy pzz pxy pxz pyz v_strain v_stress v_pea
run 0
WARNING: No fixes defined, atoms won't move (../verlet.cpp:55)
Per MPI rank memory allocation (min/avg/max) = 5.221 | 5.221 | 5.221 Mbytes
Step PotEng Pxx Pyy Pzz Pxy Pxz Pyz v_strain v_stress v_pea 
       0   -14160.129   -22286.366   -22286.142   -22286.686   -319.08284 -3.5924934e-11 7.2068077e-13      0.00042    319.08284   -3.5400323 
Loop time of 9.53674e-07 on 1 procs for 0 steps with 4000 atoms

314.6% CPU use with 1 MPI tasks x no OpenMP threads

MPI task timing breakdown:
Section |  min time  |  avg time  |  max time  |%varavg| %total
---------------------------------------------------------------
Pair    | 0          | 0          | 0          |   0.0 |  0.00
Neigh   | 0          | 0          | 0          |   0.0 |  0.00
Comm    | 0          | 0          | 0          |   0.0 |  0.00
Output  | 0          | 0          | 0          |   0.0 |  0.00
Modify  | 0          | 0          | 0          |   0.0 |  0.00
Other   |            | 9.537e-07  |            |       |100.00

Nlocal:    4000 ave 4000 max 4000 min
Histogram: 1 0 0 0 0 0 0 0 0 0
Nghost:    8195 ave 8195 max 8195 min
Histogram: 1 0 0 0 0 0 0 0 0 0
Neighs:    448000 ave 448000 max 448000 min
Histogram: 1 0 0 0 0 0 0 0 0 0

Total # of neighbors = 448000
Ave neighs/atom = 112
Neighbor list builds = 0
Dangerous builds = 0
print  "! ${loop_index} ${strain} ${stress} ${pea}"
! 42 0.00042 319.082837214833 -3.54003233843967
next loop_index
jump SELF AFFINE_LOOP
change_box all xy delta ${dxy} remap units box
change_box all xy delta 0.0003615 remap units box
  triclinic box = (0 0 0) to (36.15 36.15 36.15) with tilt (0.0155445 0 0)
thermo_style custom step pe pxx pyy pzz pxy pxz pyz v_strain v_stress v_pea
run 0
WARNING: No fixes defined, atoms won't move (../verlet.cpp:55)
Per MPI rank memory allocation (min/avg/max) = 5.221 | 5.221 | 5.221 Mbytes
Step PotEng Pxx Pyy Pzz Pxy Pxz Pyz v_strain v_stress v_pea 
       0   -14160.129   -22286.355   -22286.121   -22286.691   -326.68005 1.1230701e-11 -2.2046001e-10      0.00043    326.68005   -3.5400323 
Loop time of 9.53674e-07 on 1 procs for 0 steps with 4000 atoms

314.6% CPU use with 1 MPI tasks x no OpenMP threads

MPI task timing breakdown:
Section |  min time  |  avg time  |  max time  |%varavg| %total
---------------------------------------------------------------
Pair    | 0          | 0          | 0          |   0.0 |  0.00
Neigh   | 0          | 0          | 0          |   0.0 |  0.00
Comm    | 0          | 0          | 0          |   0.0 |  0.00
Output  | 0          | 0          | 0          |   0.0 |  0.00
Modify  | 0          | 0          | 0          |   0.0 |  0.00
Other   |            | 9.537e-07  |            |       |100.00

Nlocal:    4000 ave 4000 max 4000 min
Histogram: 1 0 0 0 0 0 0 0 0 0
Nghost:    8195 ave 8195 max 8195 min
Histogram: 1 0 0 0 0 0 0 0 0 0
Neighs:    448000 ave 448000 max 448000 min
Histogram: 1 0 0 0 0 0 0 0 0 0

Total # of neighbors = 448000
Ave neighs/atom = 112
Neighbor list builds = 0
Dangerous builds = 0
print  "! ${loop_index} ${strain} ${stress} ${pea}"
! 43 0.00043 326.680045179134 -3.54003231464643
next loop_index
jump SELF AFFINE_LOOP
change_box all xy delta ${dxy} remap units box
change_box all xy delta 0.0003615 remap units box
  triclinic box = (0 0 0) to (36.15 36.15 36.15) with tilt (0.015906 0 0)
thermo_style custom step pe pxx pyy pzz pxy pxz pyz v_strain v_stress v_pea
run 0
WARNING: No fixes defined, atoms won't move (../verlet.cpp:55)
Per MPI rank memory allocation (min/avg/max) = 5.221 | 5.221 | 5.221 Mbytes
Step PotEng Pxx Pyy Pzz Pxy Pxz Pyz v_strain v_stress v_pea 
       0   -14160.129   -22286.345   -22286.099   -22286.696   -334.27725 -1.0022544e-10 -8.8902994e-11      0.00044    334.27725   -3.5400323 
Loop time of 1.90735e-06 on 1 procs for 0 steps with 4000 atoms

157.3% CPU use with 1 MPI tasks x no OpenMP threads

MPI task timing breakdown:
Section |  min time  |  avg time  |  max time  |%varavg| %total
---------------------------------------------------------------
Pair    | 0          | 0          | 0          |   0.0 |  0.00
Neigh   | 0          | 0          | 0          |   0.0 |  0.00
Comm    | 0          | 0          | 0          |   0.0 |  0.00
Output  | 0          | 0          | 0          |   0.0 |  0.00
Modify  | 0          | 0          | 0          |   0.0 |  0.00
Other   |            | 1.907e-06  |            |       |100.00

Nlocal:    4000 ave 4000 max 4000 min
Histogram: 1 0 0 0 0 0 0 0 0 0
Nghost:    8195 ave 8195 max 8195 min
Histogram: 1 0 0 0 0 0 0 0 0 0
Neighs:    448000 ave 448000 max 448000 min
Histogram: 1 0 0 0 0 0 0 0 0 0

Total # of neighbors = 448000
Ave neighs/atom = 112
Neighbor list builds = 0
Dangerous builds = 0
print  "! ${loop_index} ${strain} ${stress} ${pea}"
! 44 0.00044 334.277252970878 -3.54003229028121
next loop_index
jump SELF AFFINE_LOOP
change_box all xy delta ${dxy} remap units box
change_box all xy delta 0.0003615 remap units box
  triclinic box = (0 0 0) to (36.15 36.15 36.15) with tilt (0.0162675 0 0)
thermo_style custom step pe pxx pyy pzz pxy pxz pyz v_strain v_stress v_pea
run 0
WARNING: No fixes defined, atoms won't move (../verlet.cpp:55)
Per MPI rank memory allocation (min/avg/max) = 5.221 | 5.221 | 5.221 Mbytes
Step PotEng Pxx Pyy Pzz Pxy Pxz Pyz v_strain v_stress v_pea 
       0   -14160.129   -22286.334   -22286.077   -22286.701   -341.87446 4.979188e-11 -1.5311243e-10      0.00045    341.87446   -3.5400323 
Loop time of 9.53674e-07 on 1 procs for 0 steps with 4000 atoms

314.6% CPU use with 1 MPI tasks x no OpenMP threads

MPI task timing breakdown:
Section |  min time  |  avg time  |  max time  |%varavg| %total
---------------------------------------------------------------
Pair    | 0          | 0          | 0          |   0.0 |  0.00
Neigh   | 0          | 0          | 0          |   0.0 |  0.00
Comm    | 0          | 0          | 0          |   0.0 |  0.00
Output  | 0          | 0          | 0          |   0.0 |  0.00
Modify  | 0          | 0          | 0          |   0.0 |  0.00
Other   |            | 9.537e-07  |            |       |100.00

Nlocal:    4000 ave 4000 max 4000 min
Histogram: 1 0 0 0 0 0 0 0 0 0
Nghost:    8195 ave 8195 max 8195 min
Histogram: 1 0 0 0 0 0 0 0 0 0
Neighs:    448000 ave 448000 max 448000 min
Histogram: 1 0 0 0 0 0 0 0 0 0

Total # of neighbors = 448000
Ave neighs/atom = 112
Neighbor list builds = 0
Dangerous builds = 0
print  "! ${loop_index} ${strain} ${stress} ${pea}"
! 45 0.00045 341.874460585889 -3.54003226536247
next loop_index
jump SELF AFFINE_LOOP
change_box all xy delta ${dxy} remap units box
change_box all xy delta 0.0003615 remap units box
  triclinic box = (0 0 0) to (36.15 36.15 36.15) with tilt (0.016629 0 0)
thermo_style custom step pe pxx pyy pzz pxy pxz pyz v_strain v_stress v_pea
run 0
[...]
       0   -14159.036   -22165.061   -22040.807   -22343.364   -7516.2035 1.3642542e-10 5.1263437e-11      0.00989    7516.2035   -3.5397589 
Loop time of 1.90735e-06 on 1 procs for 0 steps with 4000 atoms

157.3% CPU use with 1 MPI tasks x no OpenMP threads

MPI task timing breakdown:
Section |  min time  |  avg time  |  max time  |%varavg| %total
---------------------------------------------------------------
Pair    | 0          | 0          | 0          |   0.0 |  0.00
Neigh   | 0          | 0          | 0          |   0.0 |  0.00
Comm    | 0          | 0          | 0          |   0.0 |  0.00
Output  | 0          | 0          | 0          |   0.0 |  0.00
Modify  | 0          | 0          | 0          |   0.0 |  0.00
Other   |            | 1.907e-06  |            |       |100.00

Nlocal:    4000 ave 4000 max 4000 min
Histogram: 1 0 0 0 0 0 0 0 0 0
Nghost:    8195 ave 8195 max 8195 min
Histogram: 1 0 0 0 0 0 0 0 0 0
Neighs:    424000 ave 424000 max 424000 min
Histogram: 1 0 0 0 0 0 0 0 0 0

Total # of neighbors = 424000
Ave neighs/atom = 106
Neighbor list builds = 0
Dangerous builds = 0
print  "! ${loop_index} ${strain} ${stress} ${pea}"
! 989 0.00989 7516.20345091407 -3.53975889998755
next loop_index
jump SELF AFFINE_LOOP
change_box all xy delta ${dxy} remap units box
change_box all xy delta 0.0003615 remap units box
  triclinic box = (0 0 0) to (36.15 36.15 36.15) with tilt (0.357885 0 0)
thermo_style custom step pe pxx pyy pzz pxy pxz pyz v_strain v_stress v_pea
run 0
WARNING: No fixes defined, atoms won't move (../verlet.cpp:55)
Per MPI rank memory allocation (min/avg/max) = 5.221 | 5.221 | 5.221 Mbytes
Step PotEng Pxx Pyy Pzz Pxy Pxz Pyz v_strain v_stress v_pea 
       0   -14159.033   -22164.815   -22040.309   -22343.479   -7523.8086 8.4175761e-12 -8.0056052e-11       0.0099    7523.8086   -3.5397583 
Loop time of 1.19209e-06 on 1 procs for 0 steps with 4000 atoms

251.7% CPU use with 1 MPI tasks x no OpenMP threads

MPI task timing breakdown:
Section |  min time  |  avg time  |  max time  |%varavg| %total
---------------------------------------------------------------
Pair    | 0          | 0          | 0          |   0.0 |  0.00
Neigh   | 0          | 0          | 0          |   0.0 |  0.00
Comm    | 0          | 0          | 0          |   0.0 |  0.00
Output  | 0          | 0          | 0          |   0.0 |  0.00
Modify  | 0          | 0          | 0          |   0.0 |  0.00
Other   |            | 1.192e-06  |            |       |100.00

Nlocal:    4000 ave 4000 max 4000 min
Histogram: 1 0 0 0 0 0 0 0 0 0
Nghost:    8195 ave 8195 max 8195 min
Histogram: 1 0 0 0 0 0 0 0 0 0
Neighs:    424000 ave 424000 max 424000 min
Histogram: 1 0 0 0 0 0 0 0 0 0

Total # of neighbors = 424000
Ave neighs/atom = 106
Neighbor list builds = 0
Dangerous builds = 0
print  "! ${loop_index} ${strain} ${stress} ${pea}"
! 990 0.0099 7523.80864017008 -3.53975834565721
next loop_index
jump SELF AFFINE_LOOP
change_box all xy delta ${dxy} remap units box
change_box all xy delta 0.0003615 remap units box
  triclinic box = (0 0 0) to (36.15 36.15 36.15) with tilt (0.358247 0 0)
thermo_style custom step pe pxx pyy pzz pxy pxz pyz v_strain v_stress v_pea
run 0
WARNING: No fixes defined, atoms won't move (../verlet.cpp:55)
Per MPI rank memory allocation (min/avg/max) = 5.221 | 5.221 | 5.221 Mbytes
Step PotEng Pxx Pyy Pzz Pxy Pxz Pyz v_strain v_stress v_pea 
       0   -14159.031   -22164.569   -22039.811   -22343.593   -7531.4138 1.079503e-10 1.4062098e-10      0.00991    7531.4138   -3.5397578 
Loop time of 1.90735e-06 on 1 procs for 0 steps with 4000 atoms

157.3% CPU use with 1 MPI tasks x no OpenMP threads

MPI task timing breakdown:
Section |  min time  |  avg time  |  max time  |%varavg| %total
---------------------------------------------------------------
Pair    | 0          | 0          | 0          |   0.0 |  0.00
Neigh   | 0          | 0          | 0          |   0.0 |  0.00
Comm    | 0          | 0          | 0          |   0.0 |  0.00
Output  | 0          | 0          | 0          |   0.0 |  0.00
Modify  | 0          | 0          | 0          |   0.0 |  0.00
Other   |            | 1.907e-06  |            |       |100.00

Nlocal:    4000 ave 4000 max 4000 min
Histogram: 1 0 0 0 0 0 0 0 0 0
Nghost:    8195 ave 8195 max 8195 min
Histogram: 1 0 0 0 0 0 0 0 0 0
Neighs:    424000 ave 424000 max 424000 min
Histogram: 1 0 0 0 0 0 0 0 0 0

Total # of neighbors = 424000
Ave neighs/atom = 106
Neighbor list builds = 0
Dangerous builds = 0
print  "! ${loop_index} ${strain} ${stress} ${pea}"
! 991 0.00991 7531.41384607397 -3.53975779076142
next loop_index
jump SELF AFFINE_LOOP
change_box all xy delta ${dxy} remap units box
change_box all xy delta 0.0003615 remap units box
  triclinic box = (0 0 0) to (36.15 36.15 36.15) with tilt (0.358608 0 0)
thermo_style custom step pe pxx pyy pzz pxy pxz pyz v_strain v_stress v_pea
run 0
WARNING: No fixes defined, atoms won't move (../verlet.cpp:55)
Per MPI rank memory allocation (min/avg/max) = 5.221 | 5.221 | 5.221 Mbytes
Step PotEng Pxx Pyy Pzz Pxy Pxz Pyz v_strain v_stress v_pea 
       0   -14159.029   -22164.322   -22039.313   -22343.709   -7539.0191 1.6729739e-11 -2.2299564e-10      0.00992    7539.0191   -3.5397572 
Loop time of 2.14577e-06 on 1 procs for 0 steps with 4000 atoms

139.8% CPU use with 1 MPI tasks x no OpenMP threads

MPI task timing breakdown:
Section |  min time  |  avg time  |  max time  |%varavg| %total
---------------------------------------------------------------
Pair    | 0          | 0          | 0          |   0.0 |  0.00
Neigh   | 0          | 0          | 0          |   0.0 |  0.00
Comm    | 0          | 0          | 0          |   0.0 |  0.00
Output  | 0          | 0          | 0          |   0.0 |  0.00
Modify  | 0          | 0          | 0          |   0.0 |  0.00
Other   |            | 2.146e-06  |            |       |100.00

Nlocal:    4000 ave 4000 max 4000 min
Histogram: 1 0 0 0 0 0 0 0 0 0
Nghost:    8195 ave 8195 max 8195 min
Histogram: 1 0 0 0 0 0 0 0 0 0
Neighs:    424000 ave 424000 max 424000 min
Histogram: 1 0 0 0 0 0 0 0 0 0

Total # of neighbors = 424000
Ave neighs/atom = 106
Neighbor list builds = 0
Dangerous builds = 0
print  "! ${loop_index} ${strain} ${stress} ${pea}"
! 992 0.00992 7539.01906862175 -3.53975723530418
next loop_index
jump SELF AFFINE_LOOP
change_box all xy delta ${dxy} remap units box
change_box all xy delta 0.0003615 remap units box
  triclinic box = (0 0 0) to (36.15 36.15 36.15) with tilt (0.35897 0 0)
thermo_style custom step pe pxx pyy pzz pxy pxz pyz v_strain v_stress v_pea
run 0
WARNING: No fixes defined, atoms won't move (../verlet.cpp:55)
Per MPI rank memory allocation (min/avg/max) = 5.221 | 5.221 | 5.221 Mbytes
Step PotEng Pxx Pyy Pzz Pxy Pxz Pyz v_strain v_stress v_pea 
       0   -14159.027   -22164.076   -22038.814   -22343.824   -7546.6243 5.6170197e-11 -1.3512872e-10      0.00993    7546.6243   -3.5397567 
Loop time of 1.90735e-06 on 1 procs for 0 steps with 4000 atoms

209.7% CPU use with 1 MPI tasks x no OpenMP threads

MPI task timing breakdown:
Section |  min time  |  avg time  |  max time  |%varavg| %total
---------------------------------------------------------------
Pair    | 0          | 0          | 0          |   0.0 |  0.00
Neigh   | 0          | 0          | 0          |   0.0 |  0.00
Comm    | 0          | 0          | 0          |   0.0 |  0.00
Output  | 0          | 0          | 0          |   0.0 |  0.00
Modify  | 0          | 0          | 0          |   0.0 |  0.00
Other   |            | 1.907e-06  |            |       |100.00

Nlocal:    4000 ave 4000 max 4000 min
Histogram: 1 0 0 0 0 0 0 0 0 0
Nghost:    8195 ave 8195 max 8195 min
Histogram: 1 0 0 0 0 0 0 0 0 0
Neighs:    424000 ave 424000 max 424000 min
Histogram: 1 0 0 0 0 0 0 0 0 0

Total # of neighbors = 424000
Ave neighs/atom = 106
Neighbor list builds = 0
Dangerous builds = 0
print  "! ${loop_index} ${strain} ${stress} ${pea}"
! 993 0.00993 7546.62430780954 -3.5397566792854
next loop_index
jump SELF AFFINE_LOOP
change_box all xy delta ${dxy} remap units box
change_box all xy delta 0.0003615 remap units box
  triclinic box = (0 0 0) to (36.15 36.15 36.15) with tilt (0.359331 0 0)
thermo_style custom step pe pxx pyy pzz pxy pxz pyz v_strain v_stress v_pea
run 0
WARNING: No fixes defined, atoms won't move (../verlet.cpp:55)
Per MPI rank memory allocation (min/avg/max) = 5.221 | 5.221 | 5.221 Mbytes
Step PotEng Pxx Pyy Pzz Pxy Pxz Pyz v_strain v_stress v_pea 
       0   -14159.024   -22163.829   -22038.314   -22343.939   -7554.2296 -1.5314352e-11 -4.5171773e-11      0.00994    7554.2296   -3.5397561 
Loop time of 1.90735e-06 on 1 procs for 0 steps with 4000 atoms

209.7% CPU use with 1 MPI tasks x no OpenMP threads

MPI task timing breakdown:
Section |  min time  |  avg time  |  max time  |%varavg| %total
---------------------------------------------------------------
Pair    | 0          | 0          | 0          |   0.0 |  0.00
Neigh   | 0          | 0          | 0          |   0.0 |  0.00
Comm    | 0          | 0          | 0          |   0.0 |  0.00
Output  | 0          | 0          | 0          |   0.0 |  0.00
Modify  | 0          | 0          | 0          |   0.0 |  0.00
Other   |            | 1.907e-06  |            |       |100.00

Nlocal:    4000 ave 4000 max 4000 min
Histogram: 1 0 0 0 0 0 0 0 0 0
Nghost:    8195 ave 8195 max 8195 min
Histogram: 1 0 0 0 0 0 0 0 0 0
Neighs:    424000 ave 424000 max 424000 min
Histogram: 1 0 0 0 0 0 0 0 0 0

Total # of neighbors = 424000
Ave neighs/atom = 106
Neighbor list builds = 0
Dangerous builds = 0
print  "! ${loop_index} ${strain} ${stress} ${pea}"
! 994 0.00994 7554.22956363321 -3.53975612271018
next loop_index
jump SELF AFFINE_LOOP
change_box all xy delta ${dxy} remap units box
change_box all xy delta 0.0003615 remap units box
  triclinic box = (0 0 0) to (36.15 36.15 36.15) with tilt (0.359693 0 0)
thermo_style custom step pe pxx pyy pzz pxy pxz pyz v_strain v_stress v_pea
run 0
WARNING: No fixes defined, atoms won't move (../verlet.cpp:55)
Per MPI rank memory allocation (min/avg/max) = 5.221 | 5.221 | 5.221 Mbytes
Step PotEng Pxx Pyy Pzz Pxy Pxz Pyz v_strain v_stress v_pea 
       0   -14159.022   -22163.581   -22037.814   -22344.054   -7561.8348 1.6472363e-11 1.7331358e-10      0.00995    7561.8348   -3.5397556 
Loop time of 1.90735e-06 on 1 procs for 0 steps with 4000 atoms

157.3% CPU use with 1 MPI tasks x no OpenMP threads

MPI task timing breakdown:
Section |  min time  |  avg time  |  max time  |%varavg| %total
---------------------------------------------------------------
Pair    | 0          | 0          | 0          |   0.0 |  0.00
Neigh   | 0          | 0          | 0          |   0.0 |  0.00
Comm    | 0          | 0          | 0          |   0.0 |  0.00
Output  | 0          | 0          | 0          |   0.0 |  0.00
Modify  | 0          | 0          | 0          |   0.0 |  0.00
Other   |            | 1.907e-06  |            |       |100.00

Nlocal:    4000 ave 4000 max 4000 min
Histogram: 1 0 0 0 0 0 0 0 0 0
Nghost:    8195 ave 8195 max 8195 min
Histogram: 1 0 0 0 0 0 0 0 0 0
Neighs:    424000 ave 424000 max 424000 min
Histogram: 1 0 0 0 0 0 0 0 0 0

Total # of neighbors = 424000
Ave neighs/atom = 106
Neighbor list builds = 0
Dangerous builds = 0
print  "! ${loop_index} ${strain} ${stress} ${pea}"
! 995 0.00995 7561.8348360885 -3.53975556557386
next loop_index
jump SELF AFFINE_LOOP
change_box all xy delta ${dxy} remap units box
change_box all xy delta 0.0003615 remap units box
  triclinic box = (0 0 0) to (36.15 36.15 36.15) with tilt (0.360054 0 0)
thermo_style custom step pe pxx pyy pzz pxy pxz pyz v_strain v_stress v_pea
run 0
WARNING: No fixes defined, atoms won't move (../verlet.cpp:55)
Per MPI rank memory allocation (min/avg/max) = 5.221 | 5.221 | 5.221 Mbytes
Step PotEng Pxx Pyy Pzz Pxy Pxz Pyz v_strain v_stress v_pea 
       0    -14159.02   -22163.334   -22037.313    -22344.17   -7569.4401 -2.6834964e-11 3.2868471e-10      0.00996    7569.4401    -3.539755 
Loop time of 2.14577e-06 on 1 procs for 0 steps with 4000 atoms

186.4% CPU use with 1 MPI tasks x no OpenMP threads

MPI task timing breakdown:
Section |  min time  |  avg time  |  max time  |%varavg| %total
---------------------------------------------------------------
Pair    | 0          | 0          | 0          |   0.0 |  0.00
Neigh   | 0          | 0          | 0          |   0.0 |  0.00
Comm    | 0          | 0          | 0          |   0.0 |  0.00
Output  | 0          | 0          | 0          |   0.0 |  0.00
Modify  | 0          | 0          | 0          |   0.0 |  0.00
Other   |            | 2.146e-06  |            |       |100.00

Nlocal:    4000 ave 4000 max 4000 min
Histogram: 1 0 0 0 0 0 0 0 0 0
Nghost:    8195 ave 8195 max 8195 min
Histogram: 1 0 0 0 0 0 0 0 0 0
Neighs:    424000 ave 424000 max 424000 min
Histogram: 1 0 0 0 0 0 0 0 0 0

Total # of neighbors = 424000
Ave neighs/atom = 106
Neighbor list builds = 0
Dangerous builds = 0
print  "! ${loop_index} ${strain} ${stress} ${pea}"
! 996 0.00996 7569.44012517177 -3.53975500787815
next loop_index
jump SELF AFFINE_LOOP
change_box all xy delta ${dxy} remap units box
change_box all xy delta 0.0003615 remap units box
  triclinic box = (0 0 0) to (36.15 36.15 36.15) with tilt (0.360416 0 0)
thermo_style custom step pe pxx pyy pzz pxy pxz pyz v_strain v_stress v_pea
run 0
WARNING: No fixes defined, atoms won't move (../verlet.cpp:55)
Per MPI rank memory allocation (min/avg/max) = 5.221 | 5.221 | 5.221 Mbytes
Step PotEng Pxx Pyy Pzz Pxy Pxz Pyz v_strain v_stress v_pea 
       0   -14159.018   -22163.086   -22036.812   -22344.285   -7577.0454 -4.2292337e-11 -2.2565115e-11      0.00997    7577.0454   -3.5397544 
Loop time of 1.90735e-06 on 1 procs for 0 steps with 4000 atoms

157.3% CPU use with 1 MPI tasks x no OpenMP threads

MPI task timing breakdown:
Section |  min time  |  avg time  |  max time  |%varavg| %total
---------------------------------------------------------------
Pair    | 0          | 0          | 0          |   0.0 |  0.00
Neigh   | 0          | 0          | 0          |   0.0 |  0.00
Comm    | 0          | 0          | 0          |   0.0 |  0.00
Output  | 0          | 0          | 0          |   0.0 |  0.00
Modify  | 0          | 0          | 0          |   0.0 |  0.00
Other   |            | 1.907e-06  |            |       |100.00

Nlocal:    4000 ave 4000 max 4000 min
Histogram: 1 0 0 0 0 0 0 0 0 0
Nghost:    8195 ave 8195 max 8195 min
Histogram: 1 0 0 0 0 0 0 0 0 0
Neighs:    424000 ave 424000 max 424000 min
Histogram: 1 0 0 0 0 0 0 0 0 0

Total # of neighbors = 424000
Ave neighs/atom = 106
Neighbor list builds = 0
Dangerous builds = 0
print  "! ${loop_index} ${strain} ${stress} ${pea}"
! 997 0.00997 7577.04543087866 -3.53975444961163
next loop_index
jump SELF AFFINE_LOOP
change_box all xy delta ${dxy} remap units box
change_box all xy delta 0.0003615 remap units box
  triclinic box = (0 0 0) to (36.15 36.15 36.15) with tilt (0.360777 0 0)
thermo_style custom step pe pxx pyy pzz pxy pxz pyz v_strain v_stress v_pea
run 0
WARNING: No fixes defined, atoms won't move (../verlet.cpp:55)
Per MPI rank memory allocation (min/avg/max) = 5.221 | 5.221 | 5.221 Mbytes
Step PotEng Pxx Pyy Pzz Pxy Pxz Pyz v_strain v_stress v_pea 
       0   -14159.016   -22162.838   -22036.311   -22344.401   -7584.6508 -2.1818644e-11 6.5871273e-12      0.00998    7584.6508   -3.5397539 
Loop time of 2.14577e-06 on 1 procs for 0 steps with 4000 atoms

139.8% CPU use with 1 MPI tasks x no OpenMP threads

MPI task timing breakdown:
Section |  min time  |  avg time  |  max time  |%varavg| %total
---------------------------------------------------------------
Pair    | 0          | 0          | 0          |   0.0 |  0.00
Neigh   | 0          | 0          | 0          |   0.0 |  0.00
Comm    | 0          | 0          | 0          |   0.0 |  0.00
Output  | 0          | 0          | 0          |   0.0 |  0.00
Modify  | 0          | 0          | 0          |   0.0 |  0.00
Other   |            | 2.146e-06  |            |       |100.00

Nlocal:    4000 ave 4000 max 4000 min
Histogram: 1 0 0 0 0 0 0 0 0 0
Nghost:    8195 ave 8195 max 8195 min
Histogram: 1 0 0 0 0 0 0 0 0 0
Neighs:    424000 ave 424000 max 424000 min
Histogram: 1 0 0 0 0 0 0 0 0 0

Total # of neighbors = 424000
Ave neighs/atom = 106
Neighbor list builds = 0
Dangerous builds = 0
print  "! ${loop_index} ${strain} ${stress} ${pea}"
! 998 0.00998 7584.65075320534 -3.5397538907924
next loop_index
jump SELF AFFINE_LOOP
change_box all xy delta ${dxy} remap units box
change_box all xy delta 0.0003615 remap units box
  triclinic box = (0 0 0) to (36.15 36.15 36.15) with tilt (0.361139 0 0)
thermo_style custom step pe pxx pyy pzz pxy pxz pyz v_strain v_stress v_pea
run 0
WARNING: No fixes defined, atoms won't move (../verlet.cpp:55)
Per MPI rank memory allocation (min/avg/max) = 5.221 | 5.221 | 5.221 Mbytes
Step PotEng Pxx Pyy Pzz Pxy Pxz Pyz v_strain v_stress v_pea 
       0   -14159.013    -22162.59   -22035.809   -22344.517   -7592.2561 1.1924533e-10 -2.7722819e-10      0.00999    7592.2561   -3.5397533 
Loop time of 9.53674e-07 on 1 procs for 0 steps with 4000 atoms

314.6% CPU use with 1 MPI tasks x no OpenMP threads

MPI task timing breakdown:
Section |  min time  |  avg time  |  max time  |%varavg| %total
---------------------------------------------------------------
Pair    | 0          | 0          | 0          |   0.0 |  0.00
Neigh   | 0          | 0          | 0          |   0.0 |  0.00
Comm    | 0          | 0          | 0          |   0.0 |  0.00
Output  | 0          | 0          | 0          |   0.0 |  0.00
Modify  | 0          | 0          | 0          |   0.0 |  0.00
Other   |            | 9.537e-07  |            |       |100.00

Nlocal:    4000 ave 4000 max 4000 min
Histogram: 1 0 0 0 0 0 0 0 0 0
Nghost:    8195 ave 8195 max 8195 min
Histogram: 1 0 0 0 0 0 0 0 0 0
Neighs:    424000 ave 424000 max 424000 min
Histogram: 1 0 0 0 0 0 0 0 0 0

Total # of neighbors = 424000
Ave neighs/atom = 106
Neighbor list builds = 0
Dangerous builds = 0
print  "! ${loop_index} ${strain} ${stress} ${pea}"
! 999 0.00999 7592.25609214794 -3.5397533314117
next loop_index
jump SELF AFFINE_LOOP
change_box all xy delta ${dxy} remap units box
change_box all xy delta 0.0003615 remap units box
  triclinic box = (0 0 0) to (36.15 36.15 36.15) with tilt (0.3615 0 0)
thermo_style custom step pe pxx pyy pzz pxy pxz pyz v_strain v_stress v_pea
run 0
WARNING: No fixes defined, atoms won't move (../verlet.cpp:55)
Per MPI rank memory allocation (min/avg/max) = 5.221 | 5.221 | 5.221 Mbytes
Step PotEng Pxx Pyy Pzz Pxy Pxz Pyz v_strain v_stress v_pea 
       0   -14159.011   -22162.342   -22035.306   -22344.633   -7599.8614 -9.1075141e-11 -3.4400663e-11         0.01    7599.8614   -3.5397528 
Loop time of 1.90735e-06 on 1 procs for 0 steps with 4000 atoms

157.3% CPU use with 1 MPI tasks x no OpenMP threads

MPI task timing breakdown:
Section |  min time  |  avg time  |  max time  |%varavg| %total
---------------------------------------------------------------
Pair    | 0          | 0          | 0          |   0.0 |  0.00
Neigh   | 0          | 0          | 0          |   0.0 |  0.00
Comm    | 0          | 0          | 0          |   0.0 |  0.00
Output  | 0          | 0          | 0          |   0.0 |  0.00
Modify  | 0          | 0          | 0          |   0.0 |  0.00
Other   |            | 1.907e-06  |            |       |100.00

Nlocal:    4000 ave 4000 max 4000 min
Histogram: 1 0 0 0 0 0 0 0 0 0
Nghost:    8195 ave 8195 max 8195 min
Histogram: 1 0 0 0 0 0 0 0 0 0
Neighs:    424000 ave 424000 max 424000 min
Histogram: 1 0 0 0 0 0 0 0 0 0

Total # of neighbors = 424000
Ave neighs/atom = 106
Neighbor list builds = 0
Dangerous builds = 0
print  "! ${loop_index} ${strain} ${stress} ${pea}"
! 1000 0.01 7599.86144770212 -3.53975277146552
next loop_index
jump SELF AFFINE_LOOP

write_dump all atom final.lammpstrj
Total wall time: 0:01:51
