LAMMPS data file via write_data, version 22 Aug 2018, timestep = 0

10000 atoms
3 atom types

0.0000000000000000e+00 6.3920977116675402e+01 xlo xhi
0.0000000000000000e+00 6.3920977116675402e+01 ylo yhi
0.0000000000000000e+00 6.3920977116675402e+01 zlo zhi

Masses

1 1
2 1
3 1

Atoms # atomic

1 1 6.1758229078275022e+00 5.3309751492651301e+01 6.0578069667951127e+01 0 0 0
2 1 2.2933948487877260e+00 7.3802222004519824e-01 3.2698916646192275e+00 0 0 0
3 1 4.8949864031183395e+01 3.7389280486887444e+01 5.8432086198027399e+01 0 0 0
4 1 5.0101286762357788e+01 2.1295056982287687e+01 1.2471825043571084e+01 0 0 0
5 1 1.7079541720569829e+01 5.0670443744566441e+01 6.2890866578576279e+01 0 0 0
6 1 9.5169847871327669e+00 2.1678571418538660e+01 2.1802663294885263e+00 0 0 0
7 1 1.7016311858659382e+01 1.0701788482479492e+01 5.5250395824914939e+01 0 0 0
8 1 1.3368055401887041e+01 5.8593551518113578e+01 1.5246905433721539e+01 0 0 0
9 1 5.9463340922888456e+01 5.9814648883032980e+01 1.9596663181186820e+01 0 0 0
10 1 4.0243981095250938e+01 3.2731396340048150e+01 1.2649221080730465e+01 0 0 0
11 1 5.8209790891209437e+01 2.1400737839935221e+01 6.2783617375442638e+01 0 0 0
12 1 6.0687964103481917e+01 5.9501813547916917e+01 3.2933094528985376e+00 0 0 0
13 1 5.9006768941501555e+01 5.6726611714426483e+01 2.2789389152274659e+01 0 0 0
14 1 6.7685991611508385e+00 4.4427810896603262e+01 3.7284039325567882e+01 0 0 0
15 1 1.5510270050394643e+01 1.1364055180482199e+01 6.3716770854877950e+01 0 0 0
16 1 1.9638122270585338e+01 3.3916148332678816e+01 4.5352077938228952e+01 0 0 0
17 1 3.8642768576509965e+01 3.1883959980975554e+01 2.4164231166237816e+01 0 0 0
18 1 3.8265588720121833e+01 2.0798848216443453e+01 4.6339099783994016e+01 0 0 0
19 1 8.0648800142628083e+00 3.3966912363161470e+01 3.6494586267760090e+00 0 0 0
20 1 3.6234085332668464e+01 1.1123195592279490e+01 4.2611230282500038e+01 0 0 0
21 1 6.0240719863570924e+01 2.1422196014908810e+01 3.9905301456532477e+01 0 0 0
22 1 2.9509671782960702e+01 6.1922079361012088e+00 9.0880361054512928e+00 0 0 0
23 1 3.5408492582346263e+01 6.2378752455885724e+00 9.5667812594758956e+00 0 0 0
24 1 2.7635179572741208e+01 1.4643349298043841e+01 1.5009753022533703e+01 0 0 0
25 1 3.6743347322801050e+01 4.8785301161789709e+00 4.6762999042098635e+01 0 0 0
26 1 3.7311251027600470e+01 2.5410506295369391e+01 1.8331189764998570e+01 0 0 0
27 1 5.7117655072211015e+01 1.1194460419405591e+01 2.5860614574048157e+01 0 0 0
28 1 4.0625729751291757e+01 5.6683346750656305e+01 6.2686868467091678e+01 0 0 0
29 1 3.2653489365894515e+01 4.5607225930690355e+01 4.4209611058067317e+01 0 0 0
30 1 1.3495048702500192e+01 1.9656732956422779e+01 2.7101059619191712e+01 0 0 0
31 1 5.0547063442848639e+01 3.4709403340931502e+01 1.8104784255963946e+01 0 0 0
32 1 2.3257914611116064e+01 1.8995800557587014e+01 4.1060250687988002e+01 0 0 0
33 1 8.7643613866973844e+00 2.8690549402824129e+01 4.6133422182554803e+01 0 0 0
34 1 2.9741969258508796e+00 1.1236275355649552e+00 2.8119740820957315e+01 0 0 0
35 1 4.0700154248375007e+01 2.9116326895290470e+01 4.3026300996740204e+01 0 0 0
36 1 5.0267312637046366e+00 4.4661577955627159e+01 3.1064191063881226e+00 0 0 0
37 1 5.0068593858049894e+01 4.7114208329529419e+01 5.9355850142757930e+01 0 0 0
38 1 4.3004466496240305e+01 2.1580144062026452e+01 9.8570904623646900e+00 0 0 0
39 1 4.8867691657368333e+01 6.2579690344030546e+01 2.1098134344336351e+01 0 0 0
40 1 2.6683859062611191e+01 6.0438147116459184e+00 7.9612202357290940e+00 0 0 0
41 1 1.7623396697267030e+01 5.0541309409775721e+01 1.9223466011508368e+00 0 0 0
42 1 2.8785881621036317e+01 5.0357585757886241e+01 4.6206808011660478e+01 0 0 0
43 1 2.1871261488202105e+01 4.4673411329190287e+01 1.0226997231902375e+01 0 0 0
44 1 1.6350098430700595e+00 5.7511249424742118e+01 4.2474100392048101e+01 0 0 0
45 1 5.6653827238212351e+01 1.3999262638270054e+01 5.6411372039303089e+01 0 0 0
46 1 2.9997270037407475e+01 1.9370999488553885e+01 1.8851948897329489e+01 0 0 0
47 1 5.2342527173482232e+01 4.0367125028938659e+01 5.6940222096035733e+01 0 0 0
48 1 3.3364354325051437e+01 3.9891873662883761e+01 5.9512652395775319e+01 0 0 0
49 1 5.7619871175741693e+01 1.4371533058343077e+01 4.8904564772406523e+01 0 0 0
50 1 4.3096363624097108e+01 3.1991721151130669e+01 4.5518858696384477e+01 0 0 0
51 1 2.9203977762718111e+01 4.5991956169555223e+01 5.4352046875626890e+01 0 0 0
52 1 1.6786425301299540e-01 8.7715072556961058e+00 2.0949215430952798e+01 0 0 0
53 1 1.6721789375542574e+01 4.6498629838973514e+01 4.6054751544104482e+00 0 0 0
54 1 5.9838608999168748e+01 3.8768472375070566e+01 3.5195457538560149e+01 0 0 0
55 1 5.3326128662826537e+00 8.0145260336457174e+00 1.8640262648520757e+01 0 0 0
56 1 1.0185484862214999e+01 7.0673607907364540e+00 1.5957327124687554e+01 0 0 0
57 1 4.6297980170402461e+01 2.0098282664544342e+01 3.3393658483925606e+01 0 0 0
58 1 2.1039054927631689e+01 5.6471736374169538e+01 2.1805012271017020e+01 0 0 0
59 1 1.7879429082992495e+01 7.0511723637520971e+00 6.3483320381972668e+01 0 0 0
60 1 5.9136605385484280e+01 1.6535266484432161e+00 4.9118311748007713e+01 0 0 0
61 1 5.5967064019556794e+01 4.1266704812430476e+01 2.6906066590897396e+01 0 0 0
62 1 3.3269069850740557e+01 3.6470141836775113e+01 1.5424278878847820e+01 0 0 0
63 1 3.6292908676565816e+01 4.0952479724975326e+01 5.1166122416184791e+01 0 0 0
64 1 2.0114298183596858e+01 4.6882578732820150e+01 1.6158452505871228e+00 0 0 0
65 1 5.5016829147401999e+01 5.0913487675784879e+01 5.6787683099562003e+01 0 0 0
66 1 2.6480525258102467e+01 4.0345326634019990e+01 1.0179484281302619e+01 0 0 0
67 1 3.4057551629718262e+01 5.6841137963225343e+01 3.0002739214410887e+01 0 0 0
68 1 4.7370480268196097e+01 1.9891879379617720e+01 1.6106413022663578e+01 0 0 0
69 1 5.9066559903069489e+01 3.8897668919807501e+01 3.3288562965317439e+01 0 0 0
70 1 4.4486032947140110e+01 5.7007385948257770e+01 1.1609630520732072e+01 0 0 0
71 1 3.6238001850617174e+01 1.3027135639559932e+01 1.7722069470528773e+01 0 0 0
72 1 4.6989204586339639e+01 3.8892060856866757e+00 3.8648068893692866e+01 0 0 0
73 1 5.7045413757288038e+01 1.1533245725736043e+01 3.0858294685836910e+01 0 0 0
74 1 4.4471437273371954e+01 3.4608282769996648e+00 6.1972652475420574e+01 0 0 0
75 1 4.5969015284509517e+01 5.2310454612470515e+01 1.2691409038527510e+01 0 0 0
76 1 2.1107218603821820e-01 3.1836489327186115e+01 5.7297655443936875e+01 0 0 0
77 1 3.2174783532127776e+01 5.4041394514312422e+01 2.0553751208172358e+01 0 0 0
78 1 1.7936217238917411e+01 2.6750522437304221e+00 2.3156147354395838e+01 0 0 0
79 1 3.4459899010978148e+01 4.3470000430572490e+01 4.7449770148618185e+01 0 0 0
80 1 1.0176380183579720e+01 4.5807958317654005e+01 3.0107051572303824e+01 0 0 0
81 1 1.0760920107914133e+01 2.6339990638130143e+01 4.3456122076179355e+01 0 0 0
82 1 5.9591992133450953e+00 5.6011013977342373e+01 1.2881919914610966e+01 0 0 0
83 1 6.0785106869253109e+00 1.5807682706409739e+01 2.4142349725505778e+01 0 0 0
84 1 5.4030077036820003e+01 2.2103838342963186e+01 5.4413005181534821e+01 0 0 0
85 1 1.9584777807252383e+00 6.0753822677923417e+01 1.5809286085918195e+01 0 0 0
86 1 5.1090349124124167e+01 2.5012120854248607e+01 3.4369678098868263e+01 0 0 0
87 1 6.1230581399904715e+01 3.8570986841285333e+01 3.9946901277330845e+01 0 0 0
88 1 2.5547111657748520e+01 1.3102339070653924e+01 3.2465935337484231e+00 0 0 0
89 1 4.0904041185625587e+01 4.1113169653148169e+00 3.2797292002333178e-01 0 0 0
90 1 1.5036834798051830e+01 4.4459908639248702e+01 1.4620059174099127e+00 0 0 0
91 1 2.6278241105049855e+01 2.8367353462531867e+01 4.7462308607925770e+01 0 0 0
92 1 2.9147334416069903e+01 5.2801885803273194e+01 2.6369384807950414e+01 0 0 0
93 1 2.6116117312030600e+01 5.2154780204942114e+01 1.7031703492318290e+01 0 0 0
94 1 1.3705066921081251e+01 3.3779191231096625e+01 4.4669247846684769e+01 0 0 0
95 1 4.1723238783242591e+00 2.9355260028981758e+00 5.4312173752904997e+01 0 0 0
96 1 3.3151038949555549e+01 3.4275076237330822e+01 5.3605453404911056e+00 0 0 0
97 1 3.0028780238364732e+01 3.7595130043761714e+01 2.4918471668088444e+00 0 0 0
98 1 1.2235321133865616e+01 5.2589125346450629e+00 4.7752594534174399e+01 0 0 0
99 1 4.9988636009492403e+01 4.5603167074003473e+01 3.9913383838228661e+01 0 0 0
100 1 3.7508306717446331e+01 1.3434675467741917e+01 2.7699410240882052e+01 0 0 0
101 1 7.5115777577432929e+00 3.1575689575993993e+00 1.4850463532523241e+01 0 0 0
102 1 4.4245927617328327e+01 4.8578666152254819e+01 6.2922286768587441e+01 0 0 0
103 1 2.6228301371237286e+01 2.0002949791490618e+01 2.9158488986846720e+01 0 0 0
104 1 4.8513825499220324e+01 5.9802042201143237e+01 6.3400069126956438e+01 0 0 0
105 1 2.2732817778664702e+00 4.6223501946547486e+01 4.6762316667449376e+01 0 0 0
106 1 2.5842580297592733e+01 5.7128530948381908e+01 2.2223798734743112e+00 0 0 0
107 1 2.1687897344317577e+01 3.1079146662371677e+01 4.8913934126085692e+01 0 0 0
108 1 8.8041595598285785e+00 5.8368674052044888e+01 7.0689831011184951e+00 0 0 0
109 1 4.3223497715641166e+01 5.9342152881815885e+01 4.5575331933060141e+00 0 0 0
110 1 2.1129794117054239e+01 4.7421842198769461e+01 5.2159144009427550e+01 0 0 0
111 1 2.6453188362273817e+01 2.8340958258601944e+01 5.1284955974503568e+01 0 0 0
112 1 3.5799622230386333e+01 6.0014203954205918e+01 4.9627934317704145e+01 0 0 0
113 1 5.5782659272935604e+01 1.0183029950581531e+01 2.9728638083752621e+01 0 0 0
114 1 4.2863129695382604e+01 1.1208685363566042e+01 9.2553426120661335e+00 0 0 0
115 1 3.4805956124241497e+01 4.2842985430191661e+01 5.6169882999553693e+01 0 0 0
116 1 6.2233514436558906e+01 1.9728575085896637e+01 2.0053164469453026e+01 0 0 0
117 1 4.2143878984303740e+01 3.8266593127980699e+00 1.0160090821701770e+01 0 0 0
118 1 2.7716561701646214e+01 4.0092270354262055e+01 3.9768057206935389e+01 0 0 0
119 1 2.4000745005162013e+01 3.9155695536143682e+01 2.3315459793625692e+01 0 0 0
120 1 2.7343026246781772e+01 2.6337637881776779e+01 3.9133460451215014e+00 0 0 0
121 1 6.0842504414761201e+01 3.6100763435062888e+01 7.6162616191475658e+00 0 0 0
122 1 3.6712845428986363e+01 3.6010177061843147e+00 5.3060235464846819e+01 0 0 0
123 1 2.1825702941941277e+01 4.6022649723582184e+01 5.8850792473430488e+01 0 0 0
124 1 5.5990174627623219e+01 4.6160831884856385e+01 1.6202223691916640e+01 0 0 0
125 1 7.4110730057449024e+00 3.9840584270893608e+01 2.8464543734080163e+01 0 0 0
126 1 1.8993797486615520e+01 7.3946368700656233e+00 1.9282360375947189e+01 0 0 0
127 1 6.3197834116784783e+01 5.5042230123282444e+01 3.0380849481563970e+01 0 0 0
128 1 1.0172028642490385e+01 3.6592584345877896e+01 2.7844261635811094e+01 0 0 0
129 1 1.3031841896404780e+01 3.2899151145227542e+01 1.9581238597092288e+01 0 0 0
130 1 3.6686904685084571e+01 1.5061774765488749e+01 1.6179101534826703e+01 0 0 0
131 1 2.3228414952276952e+00 4.8200969119878430e+01 4.3144998169425698e+01 0 0 0
132 1 1.8419821972003582e+01 1.2655707405237225e+01 3.9383492642979917e+01 0 0 0
133 1 1.6642807389705951e+01 6.1388913332991891e+01 1.4974747336971845e+01 0 0 0
134 1 2.3691584134749391e+01 2.0688092961944005e+01 3.8583873795353810e+01 0 0 0
135 1 8.5402983946756983e-01 3.5380637796156762e+01 4.9450300692128174e+01 0 0 0
136 1 1.0659261584654921e+01 4.3631572370767444e+01 1.4387352988134074e+01 0 0 0
137 1 5.9106216303007464e+01 2.2720343940310816e+00 2.5258721825176313e+01 0 0 0
138 1 2.4128683896957607e+01 1.6111427977763057e+01 1.5510956026672362e+01 0 0 0
139 1 2.2893258480100879e+01 2.6634009786227590e+01 6.3120706165938458e+01 0 0 0
140 1 3.7172302582663441e+01 5.5180145555691560e+01 4.7170345781323157e+01 0 0 0
141 1 4.4043345689968575e+01 3.1596000200701386e+01 4.2418464965590644e+01 0 0 0
142 1 1.6482894401253702e+01 5.8412355316440781e+01 3.8089245519329687e+01 0 0 0
143 1 6.1284596986518665e+01 5.1517271428428465e+01 4.1145852228819066e+01 0 0 0
144 1 4.1207961567559565e+01 6.2343983912257585e+01 2.2680716770117900e+01 0 0 0
145 1 3.4020208636110254e+01 4.5062384435214522e+00 5.3912614121373579e+01 0 0 0
146 1 2.9454909051916182e+01 4.4609644020969398e+01 2.5146458946860736e+01 0 0 0
147 1 5.4955801547353033e+01 4.7958247519524853e+01 5.4665596494034482e+01 0 0 0
148 1 2.8476177261911776e+01 2.2755568402477778e+01 1.3632051375100398e+01 0 0 0
149 1 2.1105475147755048e+01 2.2218787887286016e+01 4.8197059983779802e+00 0 0 0
150 1 1.6920707910973999e+01 1.9106676511288325e+00 2.4260699951237662e+01 0 0 0
151 1 6.1592030295654595e+01 4.0949751625357962e+01 5.3149521471597563e+00 0 0 0
152 1 3.0795705318482739e+01 1.5267574018626613e+01 2.3314384722411656e+01 0 0 0
153 1 9.2743043524995752e+00 3.3891042005725438e+01 6.9159035329542489e+00 0 0 0
154 1 2.7254280246176581e+01 4.9660793938714791e+00 4.8021235536548701e+01 0 0 0
155 1 2.6648587630446563e+01 5.2446625487488461e+01 1.6012926475329306e-01 0 0 0
156 1 6.6115138082298968e+00 2.5054346138013379e+01 4.0919274049976799e+01 0 0 0
157 1 4.4461596493315696e+00 2.9829769221448674e+00 2.0847071015271581e+01 0 0 0
158 1 2.5846977171575887e+01 3.1848377499079858e+00 2.5710216046207030e+01 0 0 0
159 1 5.7957798758718040e+00 5.8024225080773924e+01 3.4724040567371851e+01 0 0 0
160 1 8.4287405723390485e+00 1.2957508749716235e+01 6.2001497084361915e+01 0 0 0
161 1 1.9392540828402939e+01 6.1292362157020214e+01 5.4184537814617805e+01 0 0 0
162 1 6.1287046123640373e+01 2.8758941916366645e+01 4.5028809191463750e+01 0 0 0
163 1 3.8747996611233226e+01 1.0664180307813679e+01 6.2379575383341688e+01 0 0 0
164 1 4.5577777230429199e+01 6.0633122702156136e+01 3.2676061098905322e+01 0 0 0
165 1 4.1444479943309936e+01 1.0486766798291415e+01 2.0955668209713441e+01 0 0 0
166 1 6.1252664889017083e+01 2.6202325652844202e+01 3.0875890575647436e+01 0 0 0
167 1 2.0600671735537912e+01 3.9477795271699513e+01 3.5626603630322604e+00 0 0 0
168 1 4.7598140275026466e+01 1.0914987177119324e+01 5.8906138102741366e+01 0 0 0
169 1 2.7369509705491843e+01 2.3998288605252320e+01 6.1791959370642928e+01 0 0 0
170 1 1.3345927770501829e+01 6.2993364102674683e+00 1.9808942150885002e+01 0 0 0
171 1 2.8441906278791251e+01 2.2051949145888756e+01 1.3283972468350644e+01 0 0 0
172 1 5.1673184138746045e+01 4.0810712752757482e+01 3.3564773667993876e+01 0 0 0
173 1 2.0527983312671356e+01 3.2302037370376908e+01 1.9483432000593606e+01 0 0 0
174 1 5.4796842365367986e+01 6.1012314797297314e+01 1.3659892469148623e+01 0 0 0
175 1 4.1583902999535191e+01 5.2614896575690381e+01 1.5769315540634599e+01 0 0 0
176 1 1.8515165709473752e+01 1.7073475149489624e+01 1.2630560716232626e+01 0 0 0
177 1 2.6895324272634957e-01 4.5828752334479340e+01 5.9987206772308433e+01 0 0 0
178 1 4.3333137983358220e+01 4.8357796018750101e+01 5.8174625721967288e+01 0 0 0
179 1 5.6685324372104358e+00 2.8768768349440094e+01 1.8418738506911637e+01 0 0 0
180 1 5.8366886721595002e+01 4.0950297346484213e+01 1.4486887116143913e+01 0 0 0
181 1 6.1099236141484887e+00 3.2396933612951692e+01 1.6380153037978559e+01 0 0 0
182 1 5.7504644901337549e+01 5.9313829764863847e+01 3.9898723513741288e+01 0 0 0
183 1 4.6796141524888633e+01 1.9048165229149873e+01 2.6259606011482319e+01 0 0 0
184 1 3.4772221456341484e+01 5.1153216084759869e+01 5.8881494391569831e+01 0 0 0
185 1 6.0629495862291897e+01 3.5640740617358148e+01 1.0450995573204839e+01 0 0 0
186 1 5.8958459346403970e+01 1.1838972309462442e+01 5.5526818041408504e+01 0 0 0
187 1 5.6885895608518339e+01 1.5192758253723760e+01 4.4305366333679274e+01 0 0 0
188 1 2.4829537995851261e+01 3.3906478615091878e+01 1.0675088687937324e+01 0 0 0
189 1 5.3953788771419937e+01 1.8346504097590344e+01 5.8821734475443961e+01 0 0 0
190 1 1.5059242284898426e+01 3.7536677369941010e+01 4.2813392129012463e+01 0 0 0
191 1 6.2421098974631803e+00 1.6817598199333116e+01 5.8733103369763356e+01 0 0 0
192 1 5.9539699911174743e+01 8.3964556045444783e-01 4.9307968889317351e+01 0 0 0
193 1 4.7485782176797997e+01 4.0141743751602220e+01 4.0294743786284990e+01 0 0 0
194 1 5.4927242032605378e+01 1.5405322972457181e+01 3.7305875552468194e+01 0 0 0
195 1 6.2906849980627854e+01 2.2466114601232182e+01 6.7762747076581071e+00 0 0 0
196 1 4.5588766810903685e+01 5.3572070386917531e+01 5.8824304549891735e+01 0 0 0
197 1 5.8254483528596921e+01 5.4981690112290371e+00 4.1914638130466962e+01 0 0 0
198 1 5.0155232995299642e+01 3.3075714402542353e+01 4.6714956920004241e+01 0 0 0
199 1 6.0840007503972657e+01 5.8056160928731586e+01 6.0102020258418747e+01 0 0 0
200 1 5.5374085539259973e+01 4.6749816665199454e+01 7.5179738331797568e+00 0 0 0
201 1 4.6735431701579273e+01 2.1433798735422560e+01 4.3149293781094492e+01 0 0 0
202 1 2.6695190172713843e+01 4.7228508568700720e+00 5.1021749621124250e+01 0 0 0
203 1 2.2637862034806442e+01 1.6891420539855648e+01 2.1045638198451758e+01 0 0 0
204 1 3.9274814813732178e+01 4.3802867606493436e+01 1.6902409584550700e+01 0 0 0
205 1 1.3975581038147064e+01 4.1920581472275721e+01 2.2203024541757102e+01 0 0 0
206 1 5.9490043277265727e+01 6.1154279085177087e+01 3.4577525547512764e+01 0 0 0
207 1 3.8868909350969659e+01 6.1294306441080813e+01 2.2941142904446448e+01 0 0 0
208 1 4.5482724540257624e-01 3.7685236596726462e+01 4.6730209161711898e+01 0 0 0
209 1 6.1500525417879707e+01 3.7130721662973123e+01 5.9460376604068628e+01 0 0 0
210 1 9.9933424782024272e+00 3.7700145641936587e+01 4.1622623541617237e+01 0 0 0
211 1 2.6029906530443986e-01 2.8219946637793115e+01 6.2913912774047681e+01 0 0 0
212 1 1.3328529374946385e+01 3.3489387893296772e+01 3.1938810311958690e+01 0 0 0
213 1 5.1140064366350934e+01 2.9603494442597672e+01 4.8966197654396282e+01 0 0 0
214 1 5.6224577359188423e+01 2.2666960067423421e+01 5.8495214916685590e+01 0 0 0
215 1 2.4449050266959475e+01 3.1146930798358859e+01 3.7584319562448165e+01 0 0 0
216 1 1.2563019079973580e+01 1.5674260737110789e+01 1.8953510801696165e+01 0 0 0
217 1 3.3427071713926502e+01 7.3264175025791465e+00 2.3297039130896685e+01 0 0 0
218 1 3.7351833343709195e+01 4.3467448513094666e+00 5.7984848714890475e+01 0 0 0
219 1 1.2135230331016503e+01 4.8899171199835351e+01 1.6367566537114428e+01 0 0 0
220 1 3.7726256227921198e+01 3.3016402368263691e+01 8.6722535486926180e+00 0 0 0
221 1 1.4737566856894402e+01 4.9983670703287797e-01 2.7107532817102165e+01 0 0 0
222 1 3.1500146490499887e+01 2.9429585525930502e+01 2.5230054797354153e+00 0 0 0
223 1 2.4545269557332926e+01 5.0280116188115180e+01 2.2595291203067699e+01 0 0 0
224 1 4.5341997902886728e+00 1.2491152304645436e+01 2.2307933013809279e+01 0 0 0
225 1 3.2899373791350833e+01 2.3323251991223493e+01 3.0464537039638376e+01 0 0 0
226 1 1.0447320632253003e+01 6.1114703885589954e+01 8.6469172532969267e+00 0 0 0
227 1 3.6357289958260651e+01 3.6352070186587056e+01 1.2544344785210273e+01 0 0 0
228 1 2.1420274233584735e+01 7.6059227428042560e+00 5.4710282076992655e+01 0 0 0
229 1 1.2455044639835393e+01 5.4656181718164923e+01 6.2004970572243913e+01 0 0 0
230 1 1.3850474544366692e+01 4.8647985355871725e+01 1.3471576740966286e+01 0 0 0
231 1 8.6893381560887395e+00 4.6194654896833129e+01 9.3767919349127986e+00 0 0 0
232 1 3.0533457474523498e+01 1.8215481646283756e+01 3.0040617332618428e+01 0 0 0
233 1 4.4778241815568272e+01 4.6246599636376281e+01 5.1439326919948421e+01 0 0 0
234 1 9.5520405383068390e+00 3.5571787351099502e+01 2.1310376642908344e+00 0 0 0
235 1 2.0602838397832080e+01 1.1971911333126315e+01 5.2598789676477637e+01 0 0 0
236 1 7.4456893880117714e-01 4.9379616679681718e+01 3.7171629613919933e+01 0 0 0
237 1 4.3869559883510760e+01 5.1142898431235530e+01 1.3314645841351995e+01 0 0 0
238 1 5.5832747239060197e+01 2.1038774089907996e+01 5.1751696752026767e+01 0 0 0
239 1 1.8031684711672945e+01 9.1724389290795330e+00 4.7705252735340537e+01 0 0 0
240 1 2.1366748408910979e+01 2.8910670844090998e+00 1.0221878990432867e+01 0 0 0
241 1 4.3454679698392951e+01 4.5638132873762487e+01 5.2294786338026867e+01 0 0 0
242 1 5.0386289308006962e+00 5.2862737489072344e+01 2.6368034167510523e+01 0 0 0
243 1 3.4159034387555276e+00 1.0051644389641522e+01 5.8765714448644395e+01 0 0 0
244 1 3.2345308614672760e+01 4.3612486597393385e+01 1.3217645473850032e+01 0 0 0
245 1 2.3571998550454019e+01 5.6284445443230346e+01 6.1342146931512209e+00 0 0 0
246 1 5.7131235711828054e+01 4.7681339112954042e+01 2.9763596590958143e+00 0 0 0
247 1 3.7472685183182492e+01 5.3953320262064238e+01 1.0472267356463986e+01 0 0 0
248 1 3.2947457882834776e+01 4.9987504502843910e-01 2.7751879508498018e+01 0 0 0
249 1 5.8389856062482131e+01 4.3470146936484092e+01 4.9912095005023779e+01 0 0 0
250 1 3.7598047303287302e+01 5.1522228013334392e+01 6.0530197626063753e+01 0 0 0
251 1 2.8680689364473515e+01 8.2577118571194639e+00 1.4921862304509609e+01 0 0 0
252 1 2.9746523175399229e+01 2.3852979416556412e+01 4.8577555392176905e+01 0 0 0
253 1 4.4253742139069509e+01 5.2075378822865225e+01 2.4873194376268660e+01 0 0 0
254 1 5.8753889022476302e-01 3.0935652039580582e+01 2.2759621931135783e+00 0 0 0
255 1 2.7352263888015010e+01 5.3752719855436240e+01 2.6793020343507923e+01 0 0 0
256 1 5.0930103476170068e+01 1.6444554589995580e+01 5.3244918667949740e+01 0 0 0
257 1 5.7589395892305923e+01 1.3541261286630947e+01 2.9299909041876464e+01 0 0 0
258 1 6.0284537067117228e+01 5.4727187734055455e+01 4.0904514427699674e+01 0 0 0
259 1 1.2065096504524981e+01 2.0737537456959874e+01 3.8624799010304820e+01 0 0 0
260 1 4.9474346354381375e+01 3.1268844374091213e+01 4.1114519162498134e+01 0 0 0
261 1 2.5960932845035529e+01 8.0852808582749680e-01 3.7684389767554322e+01 0 0 0
262 1 3.2497551265584519e+01 4.5515635804453282e+01 3.8957810191833318e+01 0 0 0
263 1 2.1347288036411047e+01 5.9346449178091738e+01 1.2844407584934055e+01 0 0 0
264 1 1.4818556973841689e+01 1.9360212789894412e+01 2.9322835877594606e+01 0 0 0
265 1 6.2090002281873879e+01 3.6716921728270613e+01 8.1904026598412685e+00 0 0 0
266 1 3.4233771750066587e+01 1.4286776173800860e+01 3.0657102838237016e+01 0 0 0
267 1 5.0851841845791959e+01 4.3441852275373478e+01 2.1810565535627155e+01 0 0 0
268 1 4.7292170268840671e+01 4.6076239663195729e+01 7.2225080805914177e-01 0 0 0
269 1 5.7804655998345268e+01 5.1843144956243002e+01 2.0898202173733466e+01 0 0 0
270 1 5.4235654923752122e+01 2.5518619710741490e+01 4.5606002656929817e+01 0 0 0
271 1 2.3650048964670241e+01 2.5737237725131187e+01 1.2502297737406231e+01 0 0 0
272 1 1.7866290074462519e+01 4.1907764467189835e+01 6.2471528529915609e+01 0 0 0
273 1 5.6930860898110275e+01 3.8726550253172860e+00 1.6158305732069898e+01 0 0 0
274 1 3.6333647261678188e+01 2.2515131425191978e+01 6.3550309599862445e+01 0 0 0
275 1 3.4446802358789540e+01 1.5117498446726358e+01 5.7833332461838701e+01 0 0 0
276 1 2.2440649956894831e+01 2.6238837146525192e+01 5.3147937052728214e+00 0 0 0
277 1 2.8132772524771454e+01 4.0400917858673555e+00 1.7744947163365957e+01 0 0 0
278 1 4.7968725400867598e+01 3.9004416871508504e+01 3.7614027937145096e+01 0 0 0
279 1 5.0385567791692987e-01 3.0733399348687367e+01 5.4747750651348539e+01 0 0 0
280 1 2.9796026725215716e+00 2.8057034713216041e+01 9.5342353075624739e+00 0 0 0
281 1 5.5924159813943611e+01 2.3306469355073460e+01 4.0826797327826849e+00 0 0 0
282 1 3.0389822685877512e+01 3.3142719306863540e+01 2.2288795746077842e+01 0 0 0
283 1 3.0864200612381367e+01 1.5890390472714051e+01 7.9502814352394058e+00 0 0 0
284 1 2.5537908217102935e+01 5.0183043490388677e+01 5.3039865547214617e+01 0 0 0
285 1 6.2994359997593541e+01 2.3064496060005911e+01 2.8180044999698744e+01 0 0 0
286 1 3.1496852488730653e+01 3.7988274907107282e+01 2.6216922398171235e+01 0 0 0
287 1 2.0519480820362318e+01 1.7242603365735153e+01 4.2645498021178383e+01 0 0 0
288 1 6.0889809780593069e+01 1.8934445447471926e-01 5.0184367639511763e+01 0 0 0
289 1 1.1373862742213113e+01 3.6789529516331285e+01 1.4010931378717153e+01 0 0 0
290 1 6.0764961383675669e+01 1.1254582314074955e+01 1.3593664415251462e+01 0 0 0
291 1 1.5145612133447990e+01 1.8972248258902471e+01 2.8742629396910630e+01 0 0 0
292 1 2.6548203160932694e+01 2.7230251401444729e+01 4.8560125802351784e+01 0 0 0
293 1 6.9985344149087680e+00 9.7700166889261340e+00 5.5601255159074142e+01 0 0 0
294 1 2.9530989881375980e+01 4.4880602418253957e+01 4.0754866824510742e+01 0 0 0
295 1 5.3776914375077489e+01 4.9904449253806533e+01 3.6937860828495602e+01 0 0 0
296 1 1.4097187374135487e+01 4.0287002696092763e+01 5.2664693405219801e+01 0 0 0
297 1 2.1731926924881208e+01 4.0325817952073786e+00 1.9366488374487684e+01 0 0 0
298 1 6.9546319033692452e+00 3.8952230644265043e+01 5.5413786289829460e+01 0 0 0
299 1 1.0869583203227247e+01 6.2853274298700555e+01 1.6913308082520214e+01 0 0 0
300 1 5.3837050616729663e+00 3.5748351441848996e+01 2.9278763523972263e+01 0 0 0
301 1 2.4496703234586494e+01 1.0776551889824744e+00 2.2514237209304827e+01 0 0 0
302 1 4.8521223184556341e+01 5.6292985410334737e+01 2.1823487583249019e+01 0 0 0
303 1 8.7891161828063638e+00 6.1218544906402371e+01 2.8036571897381865e+01 0 0 0
304 1 4.9141552282588606e+01 6.3044866020509801e+01 4.0946520696735149e+01 0 0 0
305 1 1.4933711900283596e+01 3.7139747998747914e+01 1.9403070620820419e+01 0 0 0
306 1 4.6503651967564402e+01 2.5091413264740286e+01 2.4696701782309024e+01 0 0 0
307 1 3.8562436694371563e+01 2.4086536330977314e+01 1.0868034830408073e+01 0 0 0
308 1 3.6829772326867520e+01 5.1162076894452881e+01 1.6042191552069806e+01 0 0 0
309 1 2.4319375003291936e+00 2.8069190477175074e+01 2.2073228817011898e+01 0 0 0
310 1 5.1326519451596518e+01 3.1226233448190964e+01 2.8083435840485336e+01 0 0 0
311 1 5.8111415058820137e+00 6.0523232195674574e+01 3.9454655046936203e+01 0 0 0
312 1 6.2091742582795050e+01 2.0451821937702253e+00 4.7812419041488447e+01 0 0 0
313 1 3.2723496569844791e+01 7.7197375062708939e+00 4.9965698160530195e+01 0 0 0
314 1 4.3612602266221614e+01 1.5161691469785039e+01 3.3533745609002530e+01 0 0 0
315 1 1.0407212778604871e+01 2.6231778788168512e+01 1.4526919037939038e+01 0 0 0
316 1 3.9716662058036682e+01 5.5096157097929940e+01 4.1837832748609692e+01 0 0 0
317 1 3.7706722453637838e+01 2.4317143571216448e+01 5.1425294528965992e+01 0 0 0
318 1 2.9393553763207947e+01 3.6146940568453964e+01 1.6663617122728223e+01 0 0 0
319 1 2.7612233538259762e+01 1.2515210468418925e+01 4.3127628854787694e+01 0 0 0
320 1 4.6098636434453496e+01 5.7539899754105036e+01 1.2632369061142816e+01 0 0 0
321 1 3.0661806148294939e+01 2.0584197559518316e+00 1.4612218161041143e+01 0 0 0
322 1 3.1565503515853490e+00 6.1651729371048383e+01 2.1576477901904347e+01 0 0 0
323 1 1.2160914406800497e+01 3.3124593084702923e+01 3.7246265475992679e+01 0 0 0
324 1 1.9854951406717870e+01 3.4667743661663351e+01 2.1061303079625617e+01 0 0 0
325 1 4.6870564236040416e+01 5.5372106340239135e+01 1.3485418721888470e+01 0 0 0
326 1 4.9568580165208310e+01 1.7032075025595152e+01 1.9949426705245113e+01 0 0 0
327 1 2.4489658092122699e+01 1.0511900033278938e+01 5.9844085944974061e+01 0 0 0
328 1 2.9775462914956896e+00 5.7416415927892999e+01 4.6631946765736487e+01 0 0 0
329 1 8.0288641760958601e+00 3.9375143413356550e+00 1.9592219069316279e+01 0 0 0
330 1 2.9472770003722420e+01 2.5193775444998771e+01 1.9231483236471416e+01 0 0 0
331 1 3.9078453464276414e+01 3.5275002539292770e+00 3.1950980631259206e+01 0 0 0
332 1 2.7123834204252017e-03 4.5587028147086365e+01 2.4350347609111125e+01 0 0 0
333 1 3.4196765374775197e+01 3.1530397818129295e+01 2.6495832060016543e+01 0 0 0
334 1 4.1922837937157318e+01 6.0127429806770252e+01 3.4985524866096519e+01 0 0 0
335 1 5.6568905303836765e+01 5.6898785271249544e+01 4.0066388427036685e+01 0 0 0
336 1 5.2217346146828504e+01 4.5841854910007321e+01 2.4518285204376500e+01 0 0 0
337 1 4.4200935866185105e+01 5.9454030088230461e+01 3.1169405019511391e+01 0 0 0
338 1 3.1782691773039161e+01 4.8015842529522494e+01 6.3850272774375718e+01 0 0 0
339 1 2.6170684185923882e+01 1.0445572979247277e+01 3.1741899818341356e+01 0 0 0
340 1 1.6352310902136977e+00 6.1229750167867422e+01 2.4600469990415277e+01 0 0 0
341 1 1.9219138253073112e+01 2.3359248838985806e+01 6.0174763330788295e+01 0 0 0
342 1 6.3468337637323870e+01 6.3005524539821074e+01 1.8944025928016398e+01 0 0 0
343 1 1.8567540114363121e+00 1.3027837272503540e+01 2.9514414353745448e+01 0 0 0
344 1 2.1979617998612824e+01 1.2112945418599816e+01 5.7882510912596558e+01 0 0 0
345 1 1.8010169327361254e+01 3.1089237502599296e+01 2.6747754481649547e+01 0 0 0
346 1 5.7198488622499411e+01 2.7423420666287161e+01 3.5186127058655991e+01 0 0 0
347 1 4.0278168467013124e+01 3.2029759497156611e+01 4.5619569187688242e+01 0 0 0
348 1 5.9899800071478296e+01 4.4471190814829065e+01 6.3239576663273148e+01 0 0 0
349 1 5.3478460669842860e+01 1.9629240476197548e+01 1.2481784290414872e+01 0 0 0
350 1 5.6622649190743033e+01 1.3576357548683868e+00 6.1916278536534648e+01 0 0 0
351 1 5.7306881178960310e+01 5.9389757837651885e+01 3.7602300528849199e+01 0 0 0
352 1 5.9085212915482771e+01 3.2793962966541599e+01 4.1470878689337269e+01 0 0 0
353 1 6.7236514629838826e+00 5.6043573204679724e+01 4.8737036840054898e+01 0 0 0
354 1 3.9977397724054548e+01 2.6733074809571246e+01 2.2401713525463549e+00 0 0 0
355 1 1.1044005247771336e+00 2.4576256093417584e+01 5.9703011229559607e+01 0 0 0
356 1 6.0931934754540258e+01 5.0530333015428583e+00 3.9273088085890180e+01 0 0 0
357 1 1.4781752765992728e+01 4.0001662639161239e+01 5.1027640307720169e+01 0 0 0
358 1 5.7721654535610682e+01 6.3099057342780419e+01 5.6846394465556173e+01 0 0 0
359 1 5.4427796771985257e+01 5.8797807131150670e+01 6.0359206564232665e+01 0 0 0
360 1 3.1277883419744956e+01 1.2708281149844198e+00 9.2017715735606522e+00 0 0 0
361 1 2.9331191596102315e+01 1.0761631890901597e+01 3.8302927308432217e+01 0 0 0
362 1 9.1387307822618542e+00 5.6461223220680253e+01 3.6873372926691999e+01 0 0 0
363 1 1.6905632744371612e+01 4.2262510315649040e+00 1.4395510884965928e+01 0 0 0
364 1 4.4530570059662056e+00 5.4985872763793665e+01 4.1997365303893254e+01 0 0 0
365 1 3.4289340204093904e+01 5.3332103377498122e+01 5.2720335588451313e+01 0 0 0
366 1 6.2016420863506681e+01 1.4532588447625786e+01 7.1604764298698784e+00 0 0 0
367 1 4.6848423239934704e+01 2.8532703749110784e+00 1.4182353623936207e+01 0 0 0
368 1 1.4936894132508314e+00 4.7414938769967826e+01 5.4193257029710756e-02 0 0 0